
     Program PWSCF v.7.0 starts on 15Mar2022 at  8: 6:49 

     This program is part of the open-source Quantum ESPRESSO suite
     for quantum simulation of materials; please cite
         "P. Giannozzi et al., J. Phys.:Condens. Matter 21 395502 (2009);
         "P. Giannozzi et al., J. Phys.:Condens. Matter 29 465901 (2017);
         "P. Giannozzi et al., J. Chem. Phys. 152 154105 (2020);
          URL http://www.quantum-espresso.org", 
     in publications or presentations arising from this work. More details at
     http://www.quantum-espresso.org/quote

     Parallel version (MPI & OpenMP), running on      10 processor cores
     Number of MPI processes:                 1
     Threads/MPI process:                    10

     MPI processes distributed on     1 nodes
     0 MiB available memory on the printing compute node when the environment starts

     Reading input from cu.scf.in

     Current dimensions of program PWSCF are:
     Max number of different atomic species (ntypx) = 10
     Max number of k-points (npk) =  40000
     Max angular momentum in pseudopotentials (lmaxx) =  4
     file Cu.pbe-dn-rrkjus_psl.1.0.0.UPF: wavefunction(s)  3D renormalized

     Subspace diagonalization in iterative solution of the eigenvalue problem:
     a serial algorithm will be used


     G-vector sticks info
     --------------------
     sticks:   dense  smooth     PW     G-vecs:    dense   smooth      PW
     Sum         399     399    141                 4541     4541     969

     Using Slab Decomposition



     bravais-lattice index     =            5
     lattice parameter (alat)  =       4.8440  a.u.
     unit-cell volume          =      51.7261 (a.u.)^3
     number of atoms/cell      =            1
     number of atomic types    =            1
     number of electrons       =        11.00
     number of Kohn-Sham states=           10
     kinetic-energy cutoff     =      75.0000  Ry
     charge density cutoff     =     300.0000  Ry
     scf convergence threshold =      1.0E-06
     mixing beta               =       0.7000
     number of iterations used =            8  plain     mixing
     Exchange-correlation= PBE
                           (   1   4   3   4   0   0   0)

     celldm(1)=   4.844000  celldm(2)=   0.000000  celldm(3)=   0.000000
     celldm(4)=   0.707107  celldm(5)=   0.000000  celldm(6)=   0.000000

     crystal axes: (cart. coord. in units of alat)
               a(1) = (   0.382683  -0.220942   0.897072 )  
               a(2) = (   0.000000   0.441885   0.897072 )  
               a(3) = (  -0.382683  -0.220942   0.897072 )  

     reciprocal axes: (cart. coord. in units 2 pi/alat)
               b(1) = (  1.306563 -0.754344  0.371579 )  
               b(2) = (  0.000000  1.508689  0.371579 )  
               b(3) = ( -1.306563 -0.754344  0.371579 )  


     PseudoPot. # 1 for Cu read from file:
     ../pseudo/Cu.pbe-dn-rrkjus_psl.1.0.0.UPF
     MD5 check sum: ba3d6c84e19846e79d48cdc68ff7152b
     Pseudo is Ultrasoft + core correction, Zval = 11.0
     Generated using &quot;atomic&quot; code by A. Dal Corso  v.6.3
     Using radial grid of 1199 points,  6 beta functions with: 
                l(1) =   0
                l(2) =   0
                l(3) =   1
                l(4) =   1
                l(5) =   2
                l(6) =   2
     Q(r) pseudized with 0 coefficients 


     atomic species   valence    mass     pseudopotential
        Cu            11.00    63.54600     Cu( 1.00)

     12 Sym. Ops., with inversion, found



   Cartesian axes

     site n.     atom                  positions (alat units)
         1           Cu  tau(   1) = (   0.0000000   0.0000000   0.0000000  )

     number of k points=   116  Marzari-Vanderbilt smearing, width (Ry)=  0.0600

     Number of k-points >= 100: set verbosity='high' to print them.

     Dense  grid:     4541 G-vectors     FFT dimensions: (  27,  27,  27)

     Estimated max dynamical RAM per process >      27.87 MB

     Initial potential from superposition of free atoms

     starting charge      10.9998, renormalised to      11.0000
     Starting wfcs are    9 randomized atomic wfcs +    1 random wfcs

     total cpu time spent up to now is       30.8 secs

     Self-consistent Calculation

     iteration #  1     ecut=    75.00 Ry     beta= 0.70
     Davidson diagonalization with overlap
     ethr =  1.00E-02,  avg # of iterations =  5.8

     Threshold (ethr) on eigenvalues was too large:
     Diagonalizing with lowered threshold

     Davidson diagonalization with overlap
     ethr =  3.37E-04,  avg # of iterations =  1.5

     total cpu time spent up to now is      201.8 secs

     total energy              =    -122.45962468 Ry
     estimated scf accuracy    <       0.03713356 Ry

     iteration #  2     ecut=    75.00 Ry     beta= 0.70
     Davidson diagonalization with overlap
     ethr =  3.38E-04,  avg # of iterations =  2.2

     total cpu time spent up to now is      282.7 secs

     total energy              =    -122.46508879 Ry
     estimated scf accuracy    <       0.05751617 Ry

     iteration #  3     ecut=    75.00 Ry     beta= 0.70
     Davidson diagonalization with overlap
     ethr =  3.38E-04,  avg # of iterations =  2.0

     total cpu time spent up to now is      355.6 secs

     total energy              =    -122.47652188 Ry
     estimated scf accuracy    <       0.00021191 Ry

     iteration #  4     ecut=    75.00 Ry     beta= 0.70
     Davidson diagonalization with overlap
     ethr =  1.93E-06,  avg # of iterations =  3.1

     total cpu time spent up to now is      438.0 secs

     total energy              =    -122.47655467 Ry
     estimated scf accuracy    <       0.00000705 Ry

     iteration #  5     ecut=    75.00 Ry     beta= 0.70
     Davidson diagonalization with overlap
     ethr =  6.41E-08,  avg # of iterations =  1.8

     total cpu time spent up to now is      502.5 secs

     End of self-consistent calculation

     Number of k-points >= 100: set verbosity='high' to print the bands.

     the Fermi energy is    22.5139 ev

!    total energy              =    -122.47655560 Ry
     estimated scf accuracy    <       0.00000028 Ry
     smearing contrib. (-TS)   =       0.00265139 Ry
     internal energy E=F+TS    =    -122.47920699 Ry

     The total energy is F=E-TS. E is the sum of the following terms:
     one-electron contribution =     -12.63317141 Ry
     hartree contribution      =      26.53311012 Ry
     xc contribution           =     -45.08152432 Ry
     ewald contribution        =     -91.29762137 Ry

     convergence has been achieved in   5 iterations

     Writing all to output data dir ../tmp/cu.save/

     init_run     :     99.30s CPU     30.66s WALL (       1 calls)
     electrons    :   1548.71s CPU    471.76s WALL (       1 calls)

     Called by init_run:
     wfcinit      :     96.43s CPU     29.43s WALL (       1 calls)
     potinit      :      0.05s CPU      0.01s WALL (       1 calls)
     hinit0       :      2.78s CPU      1.21s WALL (       1 calls)

     Called by electrons:
     c_bands      :   1285.33s CPU    392.01s WALL (       6 calls)
     sum_band     :    263.02s CPU     79.66s WALL (       6 calls)
     v_of_rho     :      0.20s CPU      0.04s WALL (       6 calls)
     newd         :      0.15s CPU      0.03s WALL (       6 calls)
     mix_rho      :      0.01s CPU      0.00s WALL (       6 calls)

     Called by c_bands:
     init_us_2    :      0.68s CPU      0.20s WALL (    1508 calls)
     init_us_2:cp :      0.67s CPU      0.20s WALL (    1508 calls)
     cegterg      :   1284.59s CPU    391.76s WALL (     696 calls)

     Called by *egterg:
     cdiaghg      :      0.78s CPU      0.24s WALL (    2490 calls)
     h_psi        :   1374.51s CPU    418.82s WALL (    2722 calls)
     s_psi        :      0.45s CPU      0.16s WALL (    2722 calls)
     g_psi        :      0.58s CPU      0.22s WALL (    1910 calls)

     Called by h_psi:
     h_psi:calbec :      1.03s CPU      0.28s WALL (    2722 calls)
     vloc_psi     :   1372.11s CPU    418.01s WALL (    2722 calls)
     add_vuspsi   :      0.56s CPU      0.25s WALL (    2722 calls)

     General routines
     calbec       :      1.35s CPU      0.37s WALL (    3418 calls)
     fft          :      2.67s CPU      1.02s WALL (      67 calls)
     ffts         :      0.01s CPU      0.00s WALL (       6 calls)
     fftw         :   1607.72s CPU    489.49s WALL (   44420 calls)

     Parallel routines

     PWSCF        :  27m29.06s CPU   8m22.89s WALL


   This run was terminated on:   8:15:12  15Mar2022            

=------------------------------------------------------------------------------=
   JOB DONE.
=------------------------------------------------------------------------------=
