
     Program PWSCF v.7.0 starts on 15Mar2022 at  7:52:23 

     This program is part of the open-source Quantum ESPRESSO suite
     for quantum simulation of materials; please cite
         "P. Giannozzi et al., J. Phys.:Condens. Matter 21 395502 (2009);
         "P. Giannozzi et al., J. Phys.:Condens. Matter 29 465901 (2017);
         "P. Giannozzi et al., J. Chem. Phys. 152 154105 (2020);
          URL http://www.quantum-espresso.org", 
     in publications or presentations arising from this work. More details at
     http://www.quantum-espresso.org/quote

     Parallel version (MPI & OpenMP), running on      10 processor cores
     Number of MPI processes:                 1
     Threads/MPI process:                    10

     MPI processes distributed on     1 nodes
     0 MiB available memory on the printing compute node when the environment starts

     Reading input from po.scf.in

     Current dimensions of program PWSCF are:
     Max number of different atomic species (ntypx) = 10
     Max number of k-points (npk) =  40000
     Max angular momentum in pseudopotentials (lmaxx) =  4
     file Po.pbe-dn-rrkjus_psl.1.0.0.UPF: wavefunction(s)  5D renormalized

     Subspace diagonalization in iterative solution of the eigenvalue problem:
     a serial algorithm will be used


     G-vector sticks info
     --------------------
     sticks:   dense  smooth     PW     G-vecs:    dense   smooth      PW
     Sum         949     949    293                22119    22119    3743

     Using Slab Decomposition



     bravais-lattice index     =            1
     lattice parameter (alat)  =       6.3117  a.u.
     unit-cell volume          =     251.4409 (a.u.)^3
     number of atoms/cell      =            1
     number of atomic types    =            1
     number of electrons       =        16.00
     number of Kohn-Sham states=           12
     kinetic-energy cutoff     =      75.0000  Ry
     charge density cutoff     =     300.0000  Ry
     scf convergence threshold =      1.0E-06
     mixing beta               =       0.7000
     number of iterations used =            8  plain     mixing
     Exchange-correlation= PBE
                           (   1   4   3   4   0   0   0)

     celldm(1)=   6.311685  celldm(2)=   0.000000  celldm(3)=   0.000000
     celldm(4)=   0.000000  celldm(5)=   0.000000  celldm(6)=   0.000000

     crystal axes: (cart. coord. in units of alat)
               a(1) = (   1.000000   0.000000   0.000000 )  
               a(2) = (   0.000000   1.000000   0.000000 )  
               a(3) = (   0.000000   0.000000   1.000000 )  

     reciprocal axes: (cart. coord. in units 2 pi/alat)
               b(1) = (  1.000000  0.000000  0.000000 )  
               b(2) = (  0.000000  1.000000  0.000000 )  
               b(3) = (  0.000000  0.000000  1.000000 )  


     PseudoPot. # 1 for Po read from file:
     ../pseudo/Po.pbe-dn-rrkjus_psl.1.0.0.UPF
     MD5 check sum: 93671b84bf7252fd23d3fb506349bc50
     Pseudo is Ultrasoft + core correction, Zval = 16.0
     Generated using &quot;atomic&quot; code by A. Dal Corso  v.6.2.2
     Using radial grid of 1283 points,  6 beta functions with: 
                l(1) =   0
                l(2) =   0
                l(3) =   1
                l(4) =   1
                l(5) =   2
                l(6) =   2
     Q(r) pseudized with 0 coefficients 


     atomic species   valence    mass     pseudopotential
        Po            16.00   209.00000     Po( 1.00)

     48 Sym. Ops., with inversion, found



   Cartesian axes

     site n.     atom                  positions (alat units)
         1           Po  tau(   1) = (   0.0000000   0.0000000   0.0000000  )

     number of k points=    56  Marzari-Vanderbilt smearing, width (Ry)=  0.0600
                       cart. coord. in units 2pi/alat
        k(    1) = (   0.0000000   0.0000000   0.0000000), wk =   0.0020000
        k(    2) = (   0.0000000   0.0000000   0.1000000), wk =   0.0120000
        k(    3) = (   0.0000000   0.0000000   0.2000000), wk =   0.0120000
        k(    4) = (   0.0000000   0.0000000   0.3000000), wk =   0.0120000
        k(    5) = (   0.0000000   0.0000000   0.4000000), wk =   0.0120000
        k(    6) = (   0.0000000   0.0000000  -0.5000000), wk =   0.0060000
        k(    7) = (   0.0000000   0.1000000   0.1000000), wk =   0.0240000
        k(    8) = (   0.0000000   0.1000000   0.2000000), wk =   0.0480000
        k(    9) = (   0.0000000   0.1000000   0.3000000), wk =   0.0480000
        k(   10) = (   0.0000000   0.1000000   0.4000000), wk =   0.0480000
        k(   11) = (   0.0000000   0.1000000  -0.5000000), wk =   0.0240000
        k(   12) = (   0.0000000   0.2000000   0.2000000), wk =   0.0240000
        k(   13) = (   0.0000000   0.2000000   0.3000000), wk =   0.0480000
        k(   14) = (   0.0000000   0.2000000   0.4000000), wk =   0.0480000
        k(   15) = (   0.0000000   0.2000000  -0.5000000), wk =   0.0240000
        k(   16) = (   0.0000000   0.3000000   0.3000000), wk =   0.0240000
        k(   17) = (   0.0000000   0.3000000   0.4000000), wk =   0.0480000
        k(   18) = (   0.0000000   0.3000000  -0.5000000), wk =   0.0240000
        k(   19) = (   0.0000000   0.4000000   0.4000000), wk =   0.0240000
        k(   20) = (   0.0000000   0.4000000  -0.5000000), wk =   0.0240000
        k(   21) = (   0.0000000  -0.5000000  -0.5000000), wk =   0.0060000
        k(   22) = (   0.1000000   0.1000000   0.1000000), wk =   0.0160000
        k(   23) = (   0.1000000   0.1000000   0.2000000), wk =   0.0480000
        k(   24) = (   0.1000000   0.1000000   0.3000000), wk =   0.0480000
        k(   25) = (   0.1000000   0.1000000   0.4000000), wk =   0.0480000
        k(   26) = (   0.1000000   0.1000000  -0.5000000), wk =   0.0240000
        k(   27) = (   0.1000000   0.2000000   0.2000000), wk =   0.0480000
        k(   28) = (   0.1000000   0.2000000   0.3000000), wk =   0.0960000
        k(   29) = (   0.1000000   0.2000000   0.4000000), wk =   0.0960000
        k(   30) = (   0.1000000   0.2000000  -0.5000000), wk =   0.0480000
        k(   31) = (   0.1000000   0.3000000   0.3000000), wk =   0.0480000
        k(   32) = (   0.1000000   0.3000000   0.4000000), wk =   0.0960000
        k(   33) = (   0.1000000   0.3000000  -0.5000000), wk =   0.0480000
        k(   34) = (   0.1000000   0.4000000   0.4000000), wk =   0.0480000
        k(   35) = (   0.1000000   0.4000000  -0.5000000), wk =   0.0480000
        k(   36) = (   0.1000000  -0.5000000  -0.5000000), wk =   0.0120000
        k(   37) = (   0.2000000   0.2000000   0.2000000), wk =   0.0160000
        k(   38) = (   0.2000000   0.2000000   0.3000000), wk =   0.0480000
        k(   39) = (   0.2000000   0.2000000   0.4000000), wk =   0.0480000
        k(   40) = (   0.2000000   0.2000000  -0.5000000), wk =   0.0240000
        k(   41) = (   0.2000000   0.3000000   0.3000000), wk =   0.0480000
        k(   42) = (   0.2000000   0.3000000   0.4000000), wk =   0.0960000
        k(   43) = (   0.2000000   0.3000000  -0.5000000), wk =   0.0480000
        k(   44) = (   0.2000000   0.4000000   0.4000000), wk =   0.0480000
        k(   45) = (   0.2000000   0.4000000  -0.5000000), wk =   0.0480000
        k(   46) = (   0.2000000  -0.5000000  -0.5000000), wk =   0.0120000
        k(   47) = (   0.3000000   0.3000000   0.3000000), wk =   0.0160000
        k(   48) = (   0.3000000   0.3000000   0.4000000), wk =   0.0480000
        k(   49) = (   0.3000000   0.3000000  -0.5000000), wk =   0.0240000
        k(   50) = (   0.3000000   0.4000000   0.4000000), wk =   0.0480000
        k(   51) = (   0.3000000   0.4000000  -0.5000000), wk =   0.0480000
        k(   52) = (   0.3000000  -0.5000000  -0.5000000), wk =   0.0120000
        k(   53) = (   0.4000000   0.4000000   0.4000000), wk =   0.0160000
        k(   54) = (   0.4000000   0.4000000  -0.5000000), wk =   0.0240000
        k(   55) = (   0.4000000  -0.5000000  -0.5000000), wk =   0.0120000
        k(   56) = (  -0.5000000  -0.5000000  -0.5000000), wk =   0.0020000

     Dense  grid:    22119 G-vectors     FFT dimensions: (  36,  36,  36)

     Estimated max dynamical RAM per process >     106.45 MB

     Check: negative core charge=   -0.000002

     Initial potential from superposition of free atoms

     starting charge      15.9996, renormalised to      16.0000
     Starting wfcs are    9 randomized atomic wfcs +    3 random wfcs

     total cpu time spent up to now is       27.4 secs

     Self-consistent Calculation

     iteration #  1     ecut=    75.00 Ry     beta= 0.70
     Davidson diagonalization with overlap
     ethr =  1.00E-02,  avg # of iterations =  4.5

     Threshold (ethr) on eigenvalues was too large:
     Diagonalizing with lowered threshold

     Davidson diagonalization with overlap
     ethr =  8.41E-06,  avg # of iterations =  6.8

     total cpu time spent up to now is      199.5 secs

     total energy              =    -195.58666622 Ry
     estimated scf accuracy    <       0.00140179 Ry

     iteration #  2     ecut=    75.00 Ry     beta= 0.70
     Davidson diagonalization with overlap
     ethr =  8.76E-06,  avg # of iterations =  1.8

     total cpu time spent up to now is      257.1 secs

     total energy              =    -195.58681612 Ry
     estimated scf accuracy    <       0.00013172 Ry

     iteration #  3     ecut=    75.00 Ry     beta= 0.70
     Davidson diagonalization with overlap
     ethr =  8.23E-07,  avg # of iterations =  2.1

     total cpu time spent up to now is      321.4 secs

     total energy              =    -195.58683029 Ry
     estimated scf accuracy    <       0.00000746 Ry

     iteration #  4     ecut=    75.00 Ry     beta= 0.70
     Davidson diagonalization with overlap
     ethr =  4.66E-08,  avg # of iterations =  2.1

     total cpu time spent up to now is      443.4 secs

     End of self-consistent calculation

          k = 0.0000 0.0000 0.0000 (  2777 PWs)   bands (ev):

   -19.5591 -19.5591 -19.4252 -19.4252 -19.4252  -5.1983  10.8448  10.8448
    10.8448  14.3148  16.2050  16.2050

          k = 0.0000 0.0000 0.1000 (  2777 PWs)   bands (ev):

   -19.5586 -19.5471 -19.4284 -19.4284 -19.4249  -5.1032   9.6046  10.9486
    10.9486  14.8209  16.3090  17.3201

          k = 0.0000 0.0000 0.2000 (  2781 PWs)   bands (ev):

   -19.5575 -19.5156 -19.4370 -19.4370 -19.4243  -4.8341   7.5953  11.2379
    11.2379  15.3504  16.6191  19.9101

          k = 0.0000 0.0000 0.3000 (  2753 PWs)   bands (ev):

   -19.5561 -19.4767 -19.4475 -19.4475 -19.4235  -4.4500   5.8086  11.6390
    11.6390  15.9823  17.1251  21.0675

          k = 0.0000 0.0000 0.4000 (  2778 PWs)   bands (ev):

   -19.5551 -19.4560 -19.4560 -19.4452 -19.4228  -4.0800   4.5579  12.0117
    12.0117  16.8035  17.7757  19.5593

          k = 0.0000 0.0000-0.5000 (  2762 PWs)   bands (ev):

   -19.5546 -19.4592 -19.4592 -19.4330 -19.4226  -3.9189   4.0980  12.1695
    12.1695  17.5030  18.2205  18.5946

          k = 0.0000 0.1000 0.1000 (  2771 PWs)   bands (ev):

   -19.5525 -19.5408 -19.4317 -19.4282 -19.4281  -5.0082   9.5962   9.8378
    11.0525  15.3831  17.1126  17.6447

          k = 0.0000 0.1000 0.2000 (  2766 PWs)   bands (ev):

   -19.5492 -19.5115 -19.4404 -19.4367 -19.4275  -4.7394   7.6997  10.0294
    11.3419  15.8885  17.5874  19.9044

          k = 0.0000 0.1000 0.3000 (  2758 PWs)   bands (ev):

   -19.5475 -19.4728 -19.4511 -19.4472 -19.4267  -4.3557   5.9156  10.4540
    11.7429  16.4589  17.9293  19.6171

          k = 0.0000 0.1000 0.4000 (  2774 PWs)   bands (ev):

   -19.5463 -19.4598 -19.4557 -19.4413 -19.4261  -3.9862   4.6651  10.8671
    12.1154  17.0956  17.8742  19.1685

          k = 0.0000 0.1000-0.5000 (  2768 PWs)   bands (ev):

   -19.5459 -19.4631 -19.4589 -19.4292 -19.4258  -3.8255   4.2052  11.0487
    12.2730  17.2753  17.9070  19.3191

          k = 0.0000 0.2000 0.2000 (  2752 PWs)   bands (ev):

   -19.5354 -19.4925 -19.4495 -19.4362 -19.4358  -4.4714   7.8669   8.1646
    11.6311  16.3378  18.4166  20.6071

          k = 0.0000 0.2000 0.3000 (  2752 PWs)   bands (ev):

   -19.5290 -19.4607 -19.4584 -19.4464 -19.4351  -4.0891   6.2178   8.4625
    12.0315  16.6009  17.3168  21.1735

          k = 0.0000 0.2000 0.4000 (  2766 PWs)   bands (ev):

   -19.5263 -19.4697 -19.4549 -19.4344 -19.4281  -3.7210   4.9685   8.8893
    12.4029  15.7371  17.7688  20.5562

          k = 0.0000 0.2000-0.5000 (  2754 PWs)   bands (ev):

   -19.5255 -19.4731 -19.4581 -19.4341 -19.4163  -3.5609   4.5085   9.0807
    12.5597  15.3214  18.2775  19.7882

          k = 0.0000 0.3000 0.3000 (  2740 PWs)   bands (ev):

   -19.5148 -19.4724 -19.4457 -19.4453 -19.4317  -3.7087   6.5643   6.7613
    12.4299  15.2493  17.5959  22.1589

          k = 0.0000 0.3000 0.4000 (  2766 PWs)   bands (ev):

   -19.5083 -19.4819 -19.4539 -19.4448 -19.4051  -3.3426   5.4036   7.0950
    12.7979  14.0940  18.2912  21.0293

          k = 0.0000 0.3000-0.5000 (  2754 PWs)   bands (ev):

   -19.5065 -19.4855 -19.4571 -19.4445 -19.3942  -3.1835   4.9432   7.2847
    12.9527  13.6554  18.8131  20.2802

          k = 0.0000 0.4000 0.4000 (  2740 PWs)   bands (ev):

   -19.4985 -19.4917 -19.4532 -19.4531 -19.3816  -2.9785   5.7999   5.8638
    12.9233  13.1605  18.9994  21.9606

          k = 0.0000 0.4000-0.5000 (  2746 PWs)   bands (ev):

   -19.4956 -19.4955 -19.4563 -19.4528 -19.3717  -2.8203   5.3681   6.0211
    12.4844  13.3123  19.5451  20.8110

          k = 0.0000-0.5000-0.5000 (  2752 PWs)   bands (ev):

   -19.4993 -19.4924 -19.4560 -19.4560 -19.3622  -2.6625   5.5565   5.5565
    12.0467  13.4623  20.2008  21.0696

          k = 0.1000 0.1000 0.1000 (  2785 PWs)   bands (ev):

   -19.5404 -19.5404 -19.4316 -19.4314 -19.4314  -4.9133   9.6000   9.9424
     9.9424  16.3189  17.7405  17.7405

          k = 0.1000 0.1000 0.2000 (  2764 PWs)   bands (ev):

   -19.5394 -19.5088 -19.4402 -19.4401 -19.4308  -4.6447   7.8041  10.0422
    10.2361  16.9451  18.0114  19.9176

          k = 0.1000 0.1000 0.3000 (  2753 PWs)   bands (ev):

   -19.5380 -19.4697 -19.4509 -19.4507 -19.4300  -4.2615   6.0225  10.4753
    10.6497  17.3042  18.3612  19.5382

          k = 0.1000 0.1000 0.4000 (  2760 PWs)   bands (ev):

   -19.5370 -19.4595 -19.4594 -19.4380 -19.4293  -3.8925   4.7722  10.9044
    11.0435  17.2392  18.3167  19.0355

          k = 0.1000 0.1000-0.5000 (  2758 PWs)   bands (ev):

   -19.5366 -19.4628 -19.4626 -19.4291 -19.4258  -3.7320   4.3122  11.0957
    11.2138  17.0230  18.0649  19.1056

          k = 0.1000 0.2000 0.2000 (  2746 PWs)   bands (ev):

   -19.5232 -19.4921 -19.4492 -19.4396 -19.4392  -4.3770   7.9718   8.2692
    10.4449  17.5086  18.6703  20.5938

          k = 0.1000 0.2000 0.3000 (  2748 PWs)   bands (ev):

   -19.5175 -19.4603 -19.4572 -19.4500 -19.4385  -3.9951   6.3243   8.5668
    10.8656  16.8859  18.2760  20.1070

          k = 0.1000 0.2000 0.4000 (  2757 PWs)   bands (ev):

   -19.5155 -19.4693 -19.4586 -19.4378 -19.4263  -3.6274   5.0750   8.9934
    11.2724  15.8233  18.2279  19.5162

          k = 0.1000 0.2000-0.5000 (  2756 PWs)   bands (ev):

   -19.5148 -19.4728 -19.4619 -19.4376 -19.4143  -3.4676   4.6148   9.1847
    11.4509  15.3972  18.0127  19.5811

          k = 0.1000 0.3000 0.3000 (  2746 PWs)   bands (ev):

   -19.5025 -19.4720 -19.4493 -19.4490 -19.4314  -3.6150   6.6717   6.8650
    11.2831  15.3619  18.5679  20.4054

          k = 0.1000 0.3000 0.4000 (  2757 PWs)   bands (ev):

   -19.4961 -19.4815 -19.4577 -19.4484 -19.4046  -3.2493   5.5089   7.1993
    11.6848  14.2021  18.6665  19.8342

          k = 0.1000 0.3000-0.5000 (  2756 PWs)   bands (ev):

   -19.4944 -19.4851 -19.4609 -19.4481 -19.3936  -3.0904   5.0483   7.3885
    11.8604  13.7616  18.4982  19.8410

          k = 0.1000 0.4000 0.4000 (  2753 PWs)   bands (ev):

   -19.4913 -19.4860 -19.4569 -19.4568 -19.3813  -2.8854   5.9046   5.9667
    12.0771  13.0380  19.1041  19.6859

          k = 0.1000 0.4000-0.5000 (  2760 PWs)   bands (ev):

   -19.4951 -19.4832 -19.4601 -19.4566 -19.3715  -2.7273   5.4717   6.1241
    12.2477  12.5997  19.1011  19.6724

          k = 0.1000-0.5000-0.5000 (  2744 PWs)   bands (ev):

   -19.4989 -19.4798 -19.4598 -19.4598 -19.3620  -2.5696   5.6592   5.6592
    12.1647  12.4141  19.4408  19.4409

          k = 0.2000 0.2000 0.2000 (  2755 PWs)   bands (ev):

   -19.4912 -19.4912 -19.4488 -19.4482 -19.4482  -4.1100   8.1675   8.5634
     8.5634  17.9177  19.4936  19.4937

          k = 0.2000 0.2000 0.3000 (  2758 PWs)   bands (ev):

   -19.4901 -19.4598 -19.4593 -19.4517 -19.4473  -3.7292   6.6251   8.7645
     8.9801  16.8394  17.9456  19.6631

          k = 0.2000 0.2000 0.4000 (  2771 PWs)   bands (ev):

   -19.4892 -19.4687 -19.4682 -19.4468 -19.4194  -3.3628   5.3759   9.2075
     9.3801  15.7460  16.8390  20.1406

          k = 0.2000 0.2000-0.5000 (  2768 PWs)   bands (ev):

   -19.4888 -19.4722 -19.4716 -19.4465 -19.4071  -3.2035   4.9153   9.4100
     9.5544  15.3101  16.4274  20.4033

          k = 0.2000 0.3000 0.3000 (  2763 PWs)   bands (ev):

   -19.4716 -19.4696 -19.4587 -19.4584 -19.4306  -3.3500   6.9752   7.1566
     9.3036  15.6178  17.8053  18.4355

          k = 0.2000 0.3000 0.4000 (  2750 PWs)   bands (ev):

   -19.4806 -19.4675 -19.4645 -19.4577 -19.4027  -2.9852   5.8062   7.4928
     9.7171  14.4900  16.9506  18.7081

          k = 0.2000 0.3000-0.5000 (  2756 PWs)   bands (ev):

   -19.4842 -19.4708 -19.4634 -19.4574 -19.3911  -2.8267   5.3448   7.6800
     9.9006  14.0548  16.5481  18.9938

          k = 0.2000 0.4000 0.4000 (  2761 PWs)   bands (ev):

   -19.4904 -19.4667 -19.4665 -19.4532 -19.3807  -2.6219   6.1994   6.2557
    10.1211  13.3684  17.3894  17.7277

          k = 0.2000 0.4000-0.5000 (  2766 PWs)   bands (ev):

   -19.4941 -19.4699 -19.4663 -19.4504 -19.3708  -2.4641   5.7627   6.4132
    10.2986  12.9401  17.1332  17.8997

          k = 0.2000-0.5000-0.5000 (  2736 PWs)   bands (ev):

   -19.4978 -19.4696 -19.4696 -19.4468 -19.3614  -2.3066   5.9471   5.9471
    10.4719  12.5159  17.4891  17.4891

          k = 0.3000 0.3000 0.3000 (  2755 PWs)   bands (ev):

   -19.4706 -19.4699 -19.4699 -19.4297 -19.4297  -2.9720   7.3521   7.5684
     7.5684  15.5280  16.8044  16.8044

          k = 0.3000 0.3000 0.4000 (  2744 PWs)   bands (ev):

   -19.4797 -19.4792 -19.4692 -19.4289 -19.3970  -2.6084   6.2295   7.8618
     7.9620  14.6398  15.6760  17.1147

          k = 0.3000 0.3000-0.5000 (  2776 PWs)   bands (ev):

   -19.4833 -19.4828 -19.4689 -19.4287 -19.3846  -2.4504   5.7664   8.0547
     8.1328  14.2288  15.2599  17.4115

          k = 0.3000 0.4000 0.4000 (  2749 PWs)   bands (ev):

   -19.4892 -19.4786 -19.4784 -19.4124 -19.3800  -2.2457   6.6181   6.6626
     8.3133  13.8719  15.7948  16.1000

          k = 0.3000 0.4000-0.5000 (  2756 PWs)   bands (ev):

   -19.4929 -19.4821 -19.4782 -19.4099 -19.3697  -2.0881   6.1736   6.8202
     8.4879  13.4775  15.5141  16.2823

          k = 0.3000-0.5000-0.5000 (  2752 PWs)   bands (ev):

   -19.4966 -19.4817 -19.4817 -19.4059 -19.3608  -1.9306   6.3520   6.3520
     8.6585  13.0881  15.8641  15.8641

          k = 0.4000 0.4000 0.4000 (  2752 PWs)   bands (ev):

   -19.4884 -19.4881 -19.4881 -19.3794 -19.3794  -1.8832   7.0087   7.0493
     7.0493  14.2009  14.9756  14.9756

          k = 0.4000 0.4000-0.5000 (  2760 PWs)   bands (ev):

   -19.4919 -19.4918 -19.4878 -19.3791 -19.3667  -1.7257   6.5660   7.1985
     7.2163  13.9865  14.5622  15.1567

          k = 0.4000-0.5000-0.5000 (  2772 PWs)   bands (ev):

   -19.4956 -19.4915 -19.4915 -19.3727 -19.3602  -1.5681   6.7361   6.7361
     7.3745  13.8236  14.7423  14.7423

          k =-0.5000-0.5000-0.5000 (  2800 PWs)   bands (ev):

   -19.4952 -19.4952 -19.4952 -19.3601 -19.3601  -1.4104   6.9016   6.9016
     6.9016  14.3303  14.3303  14.3303

     the Fermi energy is     9.6137 ev

!    total energy              =    -195.58683135 Ry
     estimated scf accuracy    <       0.00000007 Ry
     smearing contrib. (-TS)   =       0.00061939 Ry
     internal energy E=F+TS    =    -195.58745074 Ry

     The total energy is F=E-TS. E is the sum of the following terms:
     one-electron contribution =     -71.76606051 Ry
     hartree contribution      =      43.52603001 Ry
     xc contribution           =     -52.26750456 Ry
     ewald contribution        =    -115.07991567 Ry

     convergence has been achieved in   4 iterations

     Writing all to output data dir ../tmp/po.save/

     init_run     :    112.62s CPU     27.26s WALL (       1 calls)
     electrons    :   1765.20s CPU    416.03s WALL (       1 calls)

     Called by init_run:
     wfcinit      :    108.71s CPU     26.16s WALL (       1 calls)
     potinit      :      0.08s CPU      0.01s WALL (       1 calls)
     hinit0       :      3.69s CPU      1.03s WALL (       1 calls)

     Called by electrons:
     c_bands      :   1482.44s CPU    351.04s WALL (       5 calls)
     sum_band     :    282.11s CPU     64.84s WALL (       5 calls)
     v_of_rho     :      0.31s CPU      0.06s WALL (       5 calls)
     newd         :      0.41s CPU      0.10s WALL (       5 calls)
     mix_rho      :      0.02s CPU      0.01s WALL (       5 calls)

     Called by c_bands:
     init_us_2    :      1.12s CPU      0.29s WALL (     616 calls)
     init_us_2:cp :      1.11s CPU      0.29s WALL (     616 calls)
     cegterg      :   1480.70s CPU    350.59s WALL (     280 calls)

     Called by *egterg:
     cdiaghg      :      0.51s CPU      0.15s WALL (    1191 calls)
     h_psi        :   1582.79s CPU    374.62s WALL (    1303 calls)
     s_psi        :      0.56s CPU      0.17s WALL (    1303 calls)
     g_psi        :      0.41s CPU      0.16s WALL (     967 calls)

     Called by h_psi:
     h_psi:calbec :      2.18s CPU      0.50s WALL (    1303 calls)
     vloc_psi     :   1579.50s CPU    373.78s WALL (    1303 calls)
     add_vuspsi   :      0.61s CPU      0.17s WALL (    1303 calls)

     General routines
     calbec       :      2.86s CPU      0.66s WALL (    1583 calls)
     fft          :      3.61s CPU      0.83s WALL (      56 calls)
     ffts         :      0.02s CPU      0.00s WALL (       5 calls)
     fftw         :   1841.11s CPU    433.88s WALL (   22032 calls)

     Parallel routines

     PWSCF        :  31m18.79s CPU   7m23.83s WALL


   This run was terminated on:   7:59:46  15Mar2022            

=------------------------------------------------------------------------------=
   JOB DONE.
=------------------------------------------------------------------------------=
