
     Program PWSCF v.7.0 starts on 13Mar2022 at  7:44: 8 

     This program is part of the open-source Quantum ESPRESSO suite
     for quantum simulation of materials; please cite
         "P. Giannozzi et al., J. Phys.:Condens. Matter 21 395502 (2009);
         "P. Giannozzi et al., J. Phys.:Condens. Matter 29 465901 (2017);
         "P. Giannozzi et al., J. Chem. Phys. 152 154105 (2020);
          URL http://www.quantum-espresso.org", 
     in publications or presentations arising from this work. More details at
     http://www.quantum-espresso.org/quote

     Parallel version (MPI & OpenMP), running on      10 processor cores
     Number of MPI processes:                 1
     Threads/MPI process:                    10

     MPI processes distributed on     1 nodes
     0 MiB available memory on the printing compute node when the environment starts

     Reading input from po.scf.edge6.3116848019.angle0.3420.in

     Current dimensions of program PWSCF are:
     Max number of different atomic species (ntypx) = 10
     Max number of k-points (npk) =  40000
     Max angular momentum in pseudopotentials (lmaxx) =  4
     file Po.pbe-dn-rrkjus_psl.1.0.0.UPF: wavefunction(s)  5D renormalized

     Subspace diagonalization in iterative solution of the eigenvalue problem:
     a serial algorithm will be used


     G-vector sticks info
     --------------------
     sticks:   dense  smooth     PW     G-vecs:    dense   smooth      PW
     Sum         891     891    277                18843    18843    3249

     Using Slab Decomposition



     bravais-lattice index     =            5
     lattice parameter (alat)  =       6.3117  a.u.
     unit-cell volume          =     214.7004 (a.u.)^3
     number of atoms/cell      =            1
     number of atomic types    =            1
     number of electrons       =        16.00
     number of Kohn-Sham states=           12
     kinetic-energy cutoff     =      75.0000  Ry
     charge density cutoff     =     300.0000  Ry
     scf convergence threshold =      1.0E-06
     mixing beta               =       0.7000
     number of iterations used =            8  plain     mixing
     Exchange-correlation= PBE
                           (   1   4   3   4   0   0   0)

     celldm(1)=   6.311685  celldm(2)=   0.000000  celldm(3)=   0.000000
     celldm(4)=   0.342000  celldm(5)=   0.000000  celldm(6)=   0.000000

     crystal axes: (cart. coord. in units of alat)
               a(1) = (   0.573585  -0.331160   0.749222 )  
               a(2) = (   0.000000   0.662319   0.749222 )  
               a(3) = (  -0.573585  -0.331160   0.749222 )  

     reciprocal axes: (cart. coord. in units 2 pi/alat)
               b(1) = (  0.871710 -0.503282  0.444906 )  
               b(2) = (  0.000000  1.006564  0.444906 )  
               b(3) = ( -0.871710 -0.503282  0.444906 )  


     PseudoPot. # 1 for Po read from file:
     ../pseudo/Po.pbe-dn-rrkjus_psl.1.0.0.UPF
     MD5 check sum: 93671b84bf7252fd23d3fb506349bc50
     Pseudo is Ultrasoft + core correction, Zval = 16.0
     Generated using &quot;atomic&quot; code by A. Dal Corso  v.6.2.2
     Using radial grid of 1283 points,  6 beta functions with: 
                l(1) =   0
                l(2) =   0
                l(3) =   1
                l(4) =   1
                l(5) =   2
                l(6) =   2
     Q(r) pseudized with 0 coefficients 


     atomic species   valence    mass     pseudopotential
        Po            16.00   209.00000     Po( 1.00)

     12 Sym. Ops., with inversion, found



   Cartesian axes

     site n.     atom                  positions (alat units)
         1           Po  tau(   1) = (   0.0000000   0.0000000   0.0000000  )

     number of k points=   116  Marzari-Vanderbilt smearing, width (Ry)=  0.0600

     Number of k-points >= 100: set verbosity='high' to print them.

     Dense  grid:    18843 G-vectors     FFT dimensions: (  36,  36,  36)

     Estimated max dynamical RAM per process >     117.29 MB

     Check: negative core charge=   -0.000002

     Initial potential from superposition of free atoms

     starting charge      15.9996, renormalised to      16.0000
     Starting wfcs are    9 randomized atomic wfcs +    3 random wfcs

     total cpu time spent up to now is       49.5 secs

     Self-consistent Calculation

     iteration #  1     ecut=    75.00 Ry     beta= 0.70
     Davidson diagonalization with overlap
     ethr =  1.00E-02,  avg # of iterations =  4.3

     Threshold (ethr) on eigenvalues was too large:
     Diagonalizing with lowered threshold

     Davidson diagonalization with overlap
     ethr =  8.95E-06,  avg # of iterations =  6.0

     total cpu time spent up to now is      425.8 secs

     total energy              =    -195.56838926 Ry
     estimated scf accuracy    <       0.00145265 Ry

     iteration #  2     ecut=    75.00 Ry     beta= 0.70
     Davidson diagonalization with overlap
     ethr =  9.08E-06,  avg # of iterations =  2.0

     total cpu time spent up to now is      548.3 secs

     total energy              =    -195.56858362 Ry
     estimated scf accuracy    <       0.00010079 Ry

     iteration #  3     ecut=    75.00 Ry     beta= 0.70
     Davidson diagonalization with overlap
     ethr =  6.30E-07,  avg # of iterations =  2.2

     total cpu time spent up to now is      687.1 secs

     total energy              =    -195.56860235 Ry
     estimated scf accuracy    <       0.00000857 Ry

     iteration #  4     ecut=    75.00 Ry     beta= 0.70
     Davidson diagonalization with overlap
     ethr =  5.35E-08,  avg # of iterations =  2.0

     total cpu time spent up to now is     1016.9 secs

     End of self-consistent calculation

     Number of k-points >= 100: set verbosity='high' to print the bands.

     the Fermi energy is    11.9648 ev

!    total energy              =    -195.56860329 Ry
     estimated scf accuracy    <       0.00000012 Ry
     smearing contrib. (-TS)   =      -0.00028313 Ry
     internal energy E=F+TS    =    -195.56832017 Ry

     The total energy is F=E-TS. E is the sum of the following terms:
     one-electron contribution =     -58.83489092 Ry
     hartree contribution      =      38.44075976 Ry
     xc contribution           =     -52.31070748 Ry
     ewald contribution        =    -122.86348153 Ry

     convergence has been achieved in   4 iterations

     Writing all to output data dir ../tmp/po.save/

     init_run     :    189.86s CPU     49.33s WALL (       1 calls)
     electrons    :   3557.05s CPU    967.40s WALL (       1 calls)

     Called by init_run:
     wfcinit      :    186.18s CPU     48.00s WALL (       1 calls)
     potinit      :      0.08s CPU      0.01s WALL (       1 calls)
     hinit0       :      3.46s CPU      1.27s WALL (       1 calls)

     Called by electrons:
     c_bands      :   3065.34s CPU    838.75s WALL (       5 calls)
     sum_band     :    491.06s CPU    128.49s WALL (       5 calls)
     v_of_rho     :      0.37s CPU      0.09s WALL (       5 calls)
     newd         :      0.40s CPU      0.10s WALL (       5 calls)
     mix_rho      :      0.02s CPU      0.01s WALL (       5 calls)

     Called by c_bands:
     init_us_2    :      2.20s CPU      0.59s WALL (    1276 calls)
     init_us_2:cp :      2.19s CPU      0.58s WALL (    1276 calls)
     cegterg      :   3061.76s CPU    837.80s WALL (     580 calls)

     Called by *egterg:
     cdiaghg      :      1.07s CPU      0.31s WALL (    2377 calls)
     h_psi        :   3234.47s CPU    881.39s WALL (    2609 calls)
     s_psi        :      1.04s CPU      0.31s WALL (    2609 calls)
     g_psi        :      0.88s CPU      0.34s WALL (    1913 calls)

     Called by h_psi:
     h_psi:calbec :      3.84s CPU      0.99s WALL (    2609 calls)
     vloc_psi     :   3228.33s CPU    879.68s WALL (    2609 calls)
     add_vuspsi   :      1.14s CPU      0.35s WALL (    2609 calls)

     General routines
     calbec       :      5.12s CPU      1.30s WALL (    3189 calls)
     fft          :      3.35s CPU      1.07s WALL (      56 calls)
     ffts         :      0.02s CPU      0.00s WALL (       5 calls)
     fftw         :   3678.40s CPU    997.44s WALL (   46488 calls)

     Parallel routines

     PWSCF        :      1h 2m CPU  16m57.85s WALL


   This run was terminated on:   8: 1: 6  13Mar2022            

=------------------------------------------------------------------------------=
   JOB DONE.
=------------------------------------------------------------------------------=
