
     Program PWSCF v.7.0 starts on 13Mar2022 at 12: 6:13 

     This program is part of the open-source Quantum ESPRESSO suite
     for quantum simulation of materials; please cite
         "P. Giannozzi et al., J. Phys.:Condens. Matter 21 395502 (2009);
         "P. Giannozzi et al., J. Phys.:Condens. Matter 29 465901 (2017);
         "P. Giannozzi et al., J. Chem. Phys. 152 154105 (2020);
          URL http://www.quantum-espresso.org", 
     in publications or presentations arising from this work. More details at
     http://www.quantum-espresso.org/quote

     Parallel version (MPI & OpenMP), running on      10 processor cores
     Number of MPI processes:                 1
     Threads/MPI process:                    10

     MPI processes distributed on     1 nodes
     0 MiB available memory on the printing compute node when the environment starts

     Reading input from po.scf.edge4.9116848019.angle0.3420.in

     Current dimensions of program PWSCF are:
     Max number of different atomic species (ntypx) = 10
     Max number of k-points (npk) =  40000
     Max angular momentum in pseudopotentials (lmaxx) =  4
     file Po.pbe-dn-rrkjus_psl.1.0.0.UPF: wavefunction(s)  5D renormalized

     Subspace diagonalization in iterative solution of the eigenvalue problem:
     a serial algorithm will be used


     G-vector sticks info
     --------------------
     sticks:   dense  smooth     PW     G-vecs:    dense   smooth      PW
     Sum         541     541    173                 8865     8865    1649

     Using Slab Decomposition



     bravais-lattice index     =            5
     lattice parameter (alat)  =       4.9117  a.u.
     unit-cell volume          =     101.1785 (a.u.)^3
     number of atoms/cell      =            1
     number of atomic types    =            1
     number of electrons       =        16.00
     number of Kohn-Sham states=           12
     kinetic-energy cutoff     =      75.0000  Ry
     charge density cutoff     =     300.0000  Ry
     scf convergence threshold =      1.0E-06
     mixing beta               =       0.7000
     number of iterations used =            8  plain     mixing
     Exchange-correlation= PBE
                           (   1   4   3   4   0   0   0)

     celldm(1)=   4.911685  celldm(2)=   0.000000  celldm(3)=   0.000000
     celldm(4)=   0.342000  celldm(5)=   0.000000  celldm(6)=   0.000000

     crystal axes: (cart. coord. in units of alat)
               a(1) = (   0.573585  -0.331160   0.749222 )  
               a(2) = (   0.000000   0.662319   0.749222 )  
               a(3) = (  -0.573585  -0.331160   0.749222 )  

     reciprocal axes: (cart. coord. in units 2 pi/alat)
               b(1) = (  0.871710 -0.503282  0.444906 )  
               b(2) = (  0.000000  1.006564  0.444906 )  
               b(3) = ( -0.871710 -0.503282  0.444906 )  


     PseudoPot. # 1 for Po read from file:
     ../pseudo/Po.pbe-dn-rrkjus_psl.1.0.0.UPF
     MD5 check sum: 93671b84bf7252fd23d3fb506349bc50
     Pseudo is Ultrasoft + core correction, Zval = 16.0
     Generated using &quot;atomic&quot; code by A. Dal Corso  v.6.2.2
     Using radial grid of 1283 points,  6 beta functions with: 
                l(1) =   0
                l(2) =   0
                l(3) =   1
                l(4) =   1
                l(5) =   2
                l(6) =   2
     Q(r) pseudized with 0 coefficients 


     atomic species   valence    mass     pseudopotential
        Po            16.00   209.00000     Po( 1.00)

     12 Sym. Ops., with inversion, found



   Cartesian axes

     site n.     atom                  positions (alat units)
         1           Po  tau(   1) = (   0.0000000   0.0000000   0.0000000  )

     number of k points=   116  Marzari-Vanderbilt smearing, width (Ry)=  0.0600

     Number of k-points >= 100: set verbosity='high' to print them.

     Dense  grid:     8865 G-vectors     FFT dimensions: (  27,  27,  27)

     Estimated max dynamical RAM per process >      55.81 MB

     Initial potential from superposition of free atoms

     starting charge      15.9996, renormalised to      16.0000
     Starting wfcs are    9 randomized atomic wfcs +    3 random wfcs

     total cpu time spent up to now is       30.1 secs

     Self-consistent Calculation

     iteration #  1     ecut=    75.00 Ry     beta= 0.70
     Davidson diagonalization with overlap
     ethr =  1.00E-02,  avg # of iterations =  5.5

     Threshold (ethr) on eigenvalues was too large:
     Diagonalizing with lowered threshold

     Davidson diagonalization with overlap
     ethr =  1.37E-05,  avg # of iterations =  6.1

     total cpu time spent up to now is      269.9 secs

     total energy              =    -195.01270434 Ry
     estimated scf accuracy    <       0.00240877 Ry

     iteration #  2     ecut=    75.00 Ry     beta= 0.70
     Davidson diagonalization with overlap
     ethr =  1.51E-05,  avg # of iterations =  1.1

     total cpu time spent up to now is      341.2 secs

     total energy              =    -195.01277843 Ry
     estimated scf accuracy    <       0.00015216 Ry

     iteration #  3     ecut=    75.00 Ry     beta= 0.70
     Davidson diagonalization with overlap
     ethr =  9.51E-07,  avg # of iterations =  2.0

     total cpu time spent up to now is      424.9 secs

     total energy              =    -195.01279275 Ry
     estimated scf accuracy    <       0.00000302 Ry

     iteration #  4     ecut=    75.00 Ry     beta= 0.70
     Davidson diagonalization with overlap
     ethr =  1.89E-08,  avg # of iterations =  3.2

     total cpu time spent up to now is      540.8 secs

     End of self-consistent calculation

     Number of k-points >= 100: set verbosity='high' to print the bands.

     the Fermi energy is    31.3071 ev

!    total energy              =    -195.01279379 Ry
     estimated scf accuracy    <       0.00000015 Ry
     smearing contrib. (-TS)   =      -0.00014534 Ry
     internal energy E=F+TS    =    -195.01264844 Ry

     The total energy is F=E-TS. E is the sum of the following terms:
     one-electron contribution =      -6.49141024 Ry
     hartree contribution      =      22.54479908 Ry
     xc contribution           =     -53.18221526 Ry
     ewald contribution        =    -157.88382202 Ry

     convergence has been achieved in   4 iterations

     Writing all to output data dir ../tmp/po.save/

     init_run     :    125.08s CPU     29.98s WALL (       1 calls)
     electrons    :   2004.43s CPU    510.78s WALL (       1 calls)

     Called by init_run:
     wfcinit      :    122.57s CPU     28.97s WALL (       1 calls)
     potinit      :      0.06s CPU      0.01s WALL (       1 calls)
     hinit0       :      2.39s CPU      0.97s WALL (       1 calls)

     Called by electrons:
     c_bands      :   1699.82s CPU    439.66s WALL (       5 calls)
     sum_band     :    304.15s CPU     70.98s WALL (       5 calls)
     v_of_rho     :      0.15s CPU      0.03s WALL (       5 calls)
     newd         :      0.20s CPU      0.05s WALL (       5 calls)
     mix_rho      :      0.02s CPU      0.01s WALL (       5 calls)

     Called by c_bands:
     init_us_2    :      1.09s CPU      0.29s WALL (    1276 calls)
     init_us_2:cp :      1.08s CPU      0.28s WALL (    1276 calls)
     cegterg      :   1698.37s CPU    439.25s WALL (     580 calls)

     Called by *egterg:
     cdiaghg      :      1.15s CPU      0.33s WALL (    2551 calls)
     h_psi        :   1811.63s CPU    465.04s WALL (    2783 calls)
     s_psi        :      0.70s CPU      0.23s WALL (    2783 calls)
     g_psi        :      0.75s CPU      0.29s WALL (    2087 calls)

     Called by h_psi:
     h_psi:calbec :      2.03s CPU      0.49s WALL (    2783 calls)
     vloc_psi     :   1807.98s CPU    464.00s WALL (    2783 calls)
     add_vuspsi   :      0.75s CPU      0.27s WALL (    2783 calls)

     General routines
     calbec       :      2.66s CPU      0.64s WALL (    3363 calls)
     fft          :      2.24s CPU      0.76s WALL (      56 calls)
     ffts         :      0.01s CPU      0.00s WALL (       5 calls)
     fftw         :   2080.66s CPU    527.19s WALL (   48082 calls)

     Parallel routines

     PWSCF        :  35m30.89s CPU   9m 1.60s WALL


   This run was terminated on:  12:15:15  13Mar2022            

=------------------------------------------------------------------------------=
   JOB DONE.
=------------------------------------------------------------------------------=
