
     Program PWSCF v.7.0 starts on 12Mar2022 at 21:50:33 

     This program is part of the open-source Quantum ESPRESSO suite
     for quantum simulation of materials; please cite
         "P. Giannozzi et al., J. Phys.:Condens. Matter 21 395502 (2009);
         "P. Giannozzi et al., J. Phys.:Condens. Matter 29 465901 (2017);
         "P. Giannozzi et al., J. Chem. Phys. 152 154105 (2020);
          URL http://www.quantum-espresso.org", 
     in publications or presentations arising from this work. More details at
     http://www.quantum-espresso.org/quote

     Parallel version (MPI & OpenMP), running on      10 processor cores
     Number of MPI processes:                 1
     Threads/MPI process:                    10

     MPI processes distributed on     1 nodes
     0 MiB available memory on the printing compute node when the environment starts

     Reading input from po.scf.edge4.2116848019.angle-0.0000.in

     Current dimensions of program PWSCF are:
     Max number of different atomic species (ntypx) = 10
     Max number of k-points (npk) =  40000
     Max angular momentum in pseudopotentials (lmaxx) =  4
     file Po.pbe-dn-rrkjus_psl.1.0.0.UPF: wavefunction(s)  5D renormalized

     Subspace diagonalization in iterative solution of the eigenvalue problem:
     a serial algorithm will be used


     G-vector sticks info
     --------------------
     sticks:   dense  smooth     PW     G-vecs:    dense   smooth      PW
     Sum         421     421    137                 6619     6619    1237

     Using Slab Decomposition



     bravais-lattice index     =            5
     lattice parameter (alat)  =       4.2117  a.u.
     unit-cell volume          =      74.7081 (a.u.)^3
     number of atoms/cell      =            1
     number of atomic types    =            1
     number of electrons       =        16.00
     number of Kohn-Sham states=           12
     kinetic-energy cutoff     =      75.0000  Ry
     charge density cutoff     =     300.0000  Ry
     scf convergence threshold =      1.0E-06
     mixing beta               =       0.7000
     number of iterations used =            8  plain     mixing
     Exchange-correlation= PBE
                           (   1   4   3   4   0   0   0)

     celldm(1)=   4.211685  celldm(2)=   0.000000  celldm(3)=   0.000000
     celldm(4)=  -0.000000  celldm(5)=   0.000000  celldm(6)=   0.000000

     crystal axes: (cart. coord. in units of alat)
               a(1) = (   0.707107  -0.408248   0.577350 )  
               a(2) = (   0.000000   0.816497   0.577350 )  
               a(3) = (  -0.707107  -0.408248   0.577350 )  

     reciprocal axes: (cart. coord. in units 2 pi/alat)
               b(1) = (  0.707107 -0.408248  0.577350 )  
               b(2) = (  0.000000  0.816497  0.577350 )  
               b(3) = ( -0.707107 -0.408248  0.577350 )  


     PseudoPot. # 1 for Po read from file:
     ../pseudo/Po.pbe-dn-rrkjus_psl.1.0.0.UPF
     MD5 check sum: 93671b84bf7252fd23d3fb506349bc50
     Pseudo is Ultrasoft + core correction, Zval = 16.0
     Generated using &quot;atomic&quot; code by A. Dal Corso  v.6.2.2
     Using radial grid of 1283 points,  6 beta functions with: 
                l(1) =   0
                l(2) =   0
                l(3) =   1
                l(4) =   1
                l(5) =   2
                l(6) =   2
     Q(r) pseudized with 0 coefficients 


     atomic species   valence    mass     pseudopotential
        Po            16.00   209.00000     Po( 1.00)

     12 Sym. Ops., with inversion, found



   Cartesian axes

     site n.     atom                  positions (alat units)
         1           Po  tau(   1) = (   0.0000000   0.0000000   0.0000000  )

     number of k points=   116  Marzari-Vanderbilt smearing, width (Ry)=  0.0600

     Number of k-points >= 100: set verbosity='high' to print them.

     Dense  grid:     6619 G-vectors     FFT dimensions: (  24,  24,  24)

     Estimated max dynamical RAM per process >      41.75 MB

     Initial potential from superposition of free atoms

     starting charge      15.9996, renormalised to      16.0000
     Starting wfcs are    9 randomized atomic wfcs +    3 random wfcs

     total cpu time spent up to now is       24.6 secs

     Self-consistent Calculation

     iteration #  1     ecut=    75.00 Ry     beta= 0.70
     Davidson diagonalization with overlap
     ethr =  1.00E-02,  avg # of iterations =  6.2

     Threshold (ethr) on eigenvalues was too large:
     Diagonalizing with lowered threshold

     Davidson diagonalization with overlap
     ethr =  5.82E-05,  avg # of iterations =  4.6

     total cpu time spent up to now is      227.8 secs

     total energy              =    -193.85143061 Ry
     estimated scf accuracy    <       0.00968946 Ry

     iteration #  2     ecut=    75.00 Ry     beta= 0.70
     Davidson diagonalization with overlap
     ethr =  6.06E-05,  avg # of iterations =  1.5

     total cpu time spent up to now is      287.6 secs

     total energy              =    -193.85170744 Ry
     estimated scf accuracy    <       0.00044065 Ry

     iteration #  3     ecut=    75.00 Ry     beta= 0.70
     Davidson diagonalization with overlap
     ethr =  2.75E-06,  avg # of iterations =  2.8

     total cpu time spent up to now is      361.3 secs

     total energy              =    -193.85176448 Ry
     estimated scf accuracy    <       0.00000509 Ry

     iteration #  4     ecut=    75.00 Ry     beta= 0.70
     Davidson diagonalization with overlap
     ethr =  3.18E-08,  avg # of iterations =  3.3

     total cpu time spent up to now is      441.8 secs

     End of self-consistent calculation

     Number of k-points >= 100: set verbosity='high' to print the bands.

     the Fermi energy is    43.9840 ev

!    total energy              =    -193.85176659 Ry
     estimated scf accuracy    <       0.00000009 Ry
     smearing contrib. (-TS)   =      -0.00048696 Ry
     internal energy E=F+TS    =    -193.85127962 Ry

     The total energy is F=E-TS. E is the sum of the following terms:
     one-electron contribution =      14.29584737 Ry
     hartree contribution      =      18.22108355 Ry
     xc contribution           =     -53.90797458 Ry
     ewald contribution        =    -172.46023597 Ry

     convergence has been achieved in   4 iterations

     Writing all to output data dir ../tmp/po.save/

     init_run     :     96.27s CPU     24.50s WALL (       1 calls)
     electrons    :   1485.77s CPU    417.15s WALL (       1 calls)

     Called by init_run:
     wfcinit      :     93.91s CPU     23.59s WALL (       1 calls)
     potinit      :      0.03s CPU      0.01s WALL (       1 calls)
     hinit0       :      2.26s CPU      0.89s WALL (       1 calls)

     Called by electrons:
     c_bands      :   1260.15s CPU    364.48s WALL (       5 calls)
     sum_band     :    225.35s CPU     52.60s WALL (       5 calls)
     v_of_rho     :      0.13s CPU      0.03s WALL (       5 calls)
     newd         :      0.16s CPU      0.03s WALL (       5 calls)
     mix_rho      :      0.01s CPU      0.00s WALL (       5 calls)

     Called by c_bands:
     init_us_2    :      0.86s CPU      0.22s WALL (    1276 calls)
     init_us_2:cp :      0.85s CPU      0.22s WALL (    1276 calls)
     cegterg      :   1259.12s CPU    364.18s WALL (     580 calls)

     Called by *egterg:
     cdiaghg      :      1.14s CPU      0.33s WALL (    2599 calls)
     h_psi        :   1344.88s CPU    384.97s WALL (    2831 calls)
     s_psi        :      0.57s CPU      0.20s WALL (    2831 calls)
     g_psi        :      0.66s CPU      0.24s WALL (    2135 calls)

     Called by h_psi:
     h_psi:calbec :      1.56s CPU      0.41s WALL (    2831 calls)
     vloc_psi     :   1341.86s CPU    384.04s WALL (    2831 calls)
     add_vuspsi   :      0.64s CPU      0.25s WALL (    2831 calls)

     General routines
     calbec       :      2.03s CPU      0.52s WALL (    3411 calls)
     fft          :      2.09s CPU      0.67s WALL (      56 calls)
     ffts         :      0.01s CPU      0.00s WALL (       5 calls)
     fftw         :   1539.64s CPU    429.14s WALL (   47594 calls)

     Parallel routines

     PWSCF        :  26m23.00s CPU   7m22.59s WALL


   This run was terminated on:  21:57:56  12Mar2022            

=------------------------------------------------------------------------------=
   JOB DONE.
=------------------------------------------------------------------------------=
