
     Program PWSCF v.7.0 starts on 13Mar2022 at  7:23:40 

     This program is part of the open-source Quantum ESPRESSO suite
     for quantum simulation of materials; please cite
         "P. Giannozzi et al., J. Phys.:Condens. Matter 21 395502 (2009);
         "P. Giannozzi et al., J. Phys.:Condens. Matter 29 465901 (2017);
         "P. Giannozzi et al., J. Chem. Phys. 152 154105 (2020);
          URL http://www.quantum-espresso.org", 
     in publications or presentations arising from this work. More details at
     http://www.quantum-espresso.org/quote

     Parallel version (MPI & OpenMP), running on      10 processor cores
     Number of MPI processes:                 1
     Threads/MPI process:                    10

     MPI processes distributed on     1 nodes
     0 MiB available memory on the printing compute node when the environment starts

     Reading input from po.scf.edge7.0116848019.angle-0.0000.in

     Current dimensions of program PWSCF are:
     Max number of different atomic species (ntypx) = 10
     Max number of k-points (npk) =  40000
     Max angular momentum in pseudopotentials (lmaxx) =  4
     file Po.pbe-dn-rrkjus_psl.1.0.0.UPF: wavefunction(s)  5D renormalized

     Subspace diagonalization in iterative solution of the eigenvalue problem:
     a serial algorithm will be used


     G-vector sticks info
     --------------------
     sticks:   dense  smooth     PW     G-vecs:    dense   smooth      PW
     Sum        1185    1185    349                30215    30215    4945

     Using Slab Decomposition



     bravais-lattice index     =            5
     lattice parameter (alat)  =       7.0117  a.u.
     unit-cell volume          =     344.7205 (a.u.)^3
     number of atoms/cell      =            1
     number of atomic types    =            1
     number of electrons       =        16.00
     number of Kohn-Sham states=           12
     kinetic-energy cutoff     =      75.0000  Ry
     charge density cutoff     =     300.0000  Ry
     scf convergence threshold =      1.0E-06
     mixing beta               =       0.7000
     number of iterations used =            8  plain     mixing
     Exchange-correlation= PBE
                           (   1   4   3   4   0   0   0)

     celldm(1)=   7.011685  celldm(2)=   0.000000  celldm(3)=   0.000000
     celldm(4)=  -0.000000  celldm(5)=   0.000000  celldm(6)=   0.000000

     crystal axes: (cart. coord. in units of alat)
               a(1) = (   0.707107  -0.408248   0.577350 )  
               a(2) = (   0.000000   0.816497   0.577350 )  
               a(3) = (  -0.707107  -0.408248   0.577350 )  

     reciprocal axes: (cart. coord. in units 2 pi/alat)
               b(1) = (  0.707107 -0.408248  0.577350 )  
               b(2) = (  0.000000  0.816497  0.577350 )  
               b(3) = ( -0.707107 -0.408248  0.577350 )  


     PseudoPot. # 1 for Po read from file:
     ../pseudo/Po.pbe-dn-rrkjus_psl.1.0.0.UPF
     MD5 check sum: 93671b84bf7252fd23d3fb506349bc50
     Pseudo is Ultrasoft + core correction, Zval = 16.0
     Generated using &quot;atomic&quot; code by A. Dal Corso  v.6.2.2
     Using radial grid of 1283 points,  6 beta functions with: 
                l(1) =   0
                l(2) =   0
                l(3) =   1
                l(4) =   1
                l(5) =   2
                l(6) =   2
     Q(r) pseudized with 0 coefficients 


     atomic species   valence    mass     pseudopotential
        Po            16.00   209.00000     Po( 1.00)

     12 Sym. Ops., with inversion, found



   Cartesian axes

     site n.     atom                  positions (alat units)
         1           Po  tau(   1) = (   0.0000000   0.0000000   0.0000000  )

     number of k points=   116  Marzari-Vanderbilt smearing, width (Ry)=  0.0600

     Number of k-points >= 100: set verbosity='high' to print them.

     Dense  grid:    30215 G-vectors     FFT dimensions: (  40,  40,  40)

     Estimated max dynamical RAM per process >     186.60 MB

     Check: negative core charge=   -0.000002

     Initial potential from superposition of free atoms

     starting charge      15.9996, renormalised to      16.0000
     Starting wfcs are    9 randomized atomic wfcs +    3 random wfcs

     total cpu time spent up to now is       66.4 secs

     Self-consistent Calculation

     iteration #  1     ecut=    75.00 Ry     beta= 0.70
     Davidson diagonalization with overlap
     ethr =  1.00E-02,  avg # of iterations =  4.6

     Threshold (ethr) on eigenvalues was too large:
     Diagonalizing with lowered threshold

     Davidson diagonalization with overlap
     ethr =  1.82E-05,  avg # of iterations =  5.9

     total cpu time spent up to now is      564.2 secs

     total energy              =    -195.55860676 Ry
     estimated scf accuracy    <       0.00306189 Ry

     iteration #  2     ecut=    75.00 Ry     beta= 0.70
     Davidson diagonalization with overlap
     ethr =  1.91E-05,  avg # of iterations =  2.0

     total cpu time spent up to now is      756.5 secs

     total energy              =    -195.55909577 Ry
     estimated scf accuracy    <       0.00020842 Ry

     iteration #  3     ecut=    75.00 Ry     beta= 0.70
     Davidson diagonalization with overlap
     c_bands:  1 eigenvalues not converged
     c_bands:  1 eigenvalues not converged
     ethr =  1.30E-06,  avg # of iterations =  2.8

     total cpu time spent up to now is      988.3 secs

     total energy              =    -195.55914745 Ry
     estimated scf accuracy    <       0.00002033 Ry

     iteration #  4     ecut=    75.00 Ry     beta= 0.70
     Davidson diagonalization with overlap
     ethr =  1.27E-07,  avg # of iterations =  2.1

     total cpu time spent up to now is     1186.0 secs

     End of self-consistent calculation

     Number of k-points >= 100: set verbosity='high' to print the bands.

     the Fermi energy is     5.2827 ev

!    total energy              =    -195.55914966 Ry
     estimated scf accuracy    <       0.00000037 Ry
     smearing contrib. (-TS)   =       0.00191193 Ry
     internal energy E=F+TS    =    -195.56106158 Ry

     The total energy is F=E-TS. E is the sum of the following terms:
     one-electron contribution =     -90.37208380 Ry
     hartree contribution      =      50.52515952 Ry
     xc contribution           =     -52.12303541 Ry
     ewald contribution        =    -103.59110189 Ry

     convergence has been achieved in   4 iterations

     Writing all to output data dir ../tmp/po.save/

     init_run     :    240.22s CPU     66.21s WALL (       1 calls)
     electrons    :   3712.61s CPU   1119.66s WALL (       1 calls)

     Called by init_run:
     wfcinit      :    236.34s CPU     64.76s WALL (       1 calls)
     potinit      :      0.09s CPU      0.02s WALL (       1 calls)
     hinit0       :      3.61s CPU      1.34s WALL (       1 calls)

     Called by electrons:
     c_bands      :   3118.58s CPU    940.87s WALL (       5 calls)
     sum_band     :    593.32s CPU    178.61s WALL (       5 calls)
     v_of_rho     :      0.37s CPU      0.07s WALL (       5 calls)
     newd         :      0.43s CPU      0.13s WALL (       5 calls)
     mix_rho      :      0.03s CPU      0.01s WALL (       5 calls)

     Called by c_bands:
     init_us_2    :      3.05s CPU      0.84s WALL (    1276 calls)
     init_us_2:cp :      3.04s CPU      0.84s WALL (    1276 calls)
     cegterg      :   3113.87s CPU    939.72s WALL (     580 calls)

     Called by *egterg:
     cdiaghg      :      1.23s CPU      0.34s WALL (    2482 calls)
     h_psi        :   3333.11s CPU    999.41s WALL (    2714 calls)
     s_psi        :      1.48s CPU      0.41s WALL (    2714 calls)
     g_psi        :      0.94s CPU      0.34s WALL (    2018 calls)

     Called by h_psi:
     h_psi:calbec :      5.34s CPU      1.47s WALL (    2714 calls)
     vloc_psi     :   3325.13s CPU    997.18s WALL (    2714 calls)
     add_vuspsi   :      1.57s CPU      0.44s WALL (    2714 calls)

     General routines
     calbec       :      7.05s CPU      1.93s WALL (    3294 calls)
     fft          :      3.54s CPU      1.14s WALL (      56 calls)
     ffts         :      0.02s CPU      0.00s WALL (       5 calls)
     fftw         :   3879.14s CPU   1164.72s WALL (   46302 calls)

     Parallel routines

     PWSCF        :      1h 5m CPU  19m46.65s WALL


   This run was terminated on:   7:43:27  13Mar2022            

=------------------------------------------------------------------------------=
   JOB DONE.
=------------------------------------------------------------------------------=
