
     Program PWSCF v.7.0 starts on 12Mar2022 at 23:14: 0 

     This program is part of the open-source Quantum ESPRESSO suite
     for quantum simulation of materials; please cite
         "P. Giannozzi et al., J. Phys.:Condens. Matter 21 395502 (2009);
         "P. Giannozzi et al., J. Phys.:Condens. Matter 29 465901 (2017);
         "P. Giannozzi et al., J. Chem. Phys. 152 154105 (2020);
          URL http://www.quantum-espresso.org", 
     in publications or presentations arising from this work. More details at
     http://www.quantum-espresso.org/quote

     Parallel version (MPI & OpenMP), running on      10 processor cores
     Number of MPI processes:                 1
     Threads/MPI process:                    10

     MPI processes distributed on     1 nodes
     0 MiB available memory on the printing compute node when the environment starts

     Reading input from po.scf.edge7.0116848019.angle0.3420.in

     Current dimensions of program PWSCF are:
     Max number of different atomic species (ntypx) = 10
     Max number of k-points (npk) =  40000
     Max angular momentum in pseudopotentials (lmaxx) =  4
     file Po.pbe-dn-rrkjus_psl.1.0.0.UPF: wavefunction(s)  5D renormalized

     Subspace diagonalization in iterative solution of the eigenvalue problem:
     a serial algorithm will be used


     G-vector sticks info
     --------------------
     sticks:   dense  smooth     PW     G-vecs:    dense   smooth      PW
     Sum        1101    1101    333                25805    25805    4281

     Using Slab Decomposition



     bravais-lattice index     =            5
     lattice parameter (alat)  =       7.0117  a.u.
     unit-cell volume          =     294.3500 (a.u.)^3
     number of atoms/cell      =            1
     number of atomic types    =            1
     number of electrons       =        16.00
     number of Kohn-Sham states=           12
     kinetic-energy cutoff     =      75.0000  Ry
     charge density cutoff     =     300.0000  Ry
     scf convergence threshold =      1.0E-06
     mixing beta               =       0.7000
     number of iterations used =            8  plain     mixing
     Exchange-correlation= PBE
                           (   1   4   3   4   0   0   0)

     celldm(1)=   7.011685  celldm(2)=   0.000000  celldm(3)=   0.000000
     celldm(4)=   0.342000  celldm(5)=   0.000000  celldm(6)=   0.000000

     crystal axes: (cart. coord. in units of alat)
               a(1) = (   0.573585  -0.331160   0.749222 )  
               a(2) = (   0.000000   0.662319   0.749222 )  
               a(3) = (  -0.573585  -0.331160   0.749222 )  

     reciprocal axes: (cart. coord. in units 2 pi/alat)
               b(1) = (  0.871710 -0.503282  0.444906 )  
               b(2) = (  0.000000  1.006564  0.444906 )  
               b(3) = ( -0.871710 -0.503282  0.444906 )  


     PseudoPot. # 1 for Po read from file:
     ../pseudo/Po.pbe-dn-rrkjus_psl.1.0.0.UPF
     MD5 check sum: 93671b84bf7252fd23d3fb506349bc50
     Pseudo is Ultrasoft + core correction, Zval = 16.0
     Generated using &quot;atomic&quot; code by A. Dal Corso  v.6.2.2
     Using radial grid of 1283 points,  6 beta functions with: 
                l(1) =   0
                l(2) =   0
                l(3) =   1
                l(4) =   1
                l(5) =   2
                l(6) =   2
     Q(r) pseudized with 0 coefficients 


     atomic species   valence    mass     pseudopotential
        Po            16.00   209.00000     Po( 1.00)

     12 Sym. Ops., with inversion, found



   Cartesian axes

     site n.     atom                  positions (alat units)
         1           Po  tau(   1) = (   0.0000000   0.0000000   0.0000000  )

     number of k points=   116  Marzari-Vanderbilt smearing, width (Ry)=  0.0600

     Number of k-points >= 100: set verbosity='high' to print them.

     Dense  grid:    25805 G-vectors     FFT dimensions: (  40,  40,  40)

     Estimated max dynamical RAM per process >     160.21 MB

     Check: negative core charge=   -0.000002

     Initial potential from superposition of free atoms

     starting charge      15.9996, renormalised to      16.0000
     Starting wfcs are    9 randomized atomic wfcs +    3 random wfcs

     total cpu time spent up to now is       49.1 secs

     Self-consistent Calculation

     iteration #  1     ecut=    75.00 Ry     beta= 0.70
     Davidson diagonalization with overlap
     ethr =  1.00E-02,  avg # of iterations =  4.2

     Threshold (ethr) on eigenvalues was too large:
     Diagonalizing with lowered threshold

     Davidson diagonalization with overlap
     ethr =  2.04E-05,  avg # of iterations =  5.4

     total cpu time spent up to now is      575.3 secs

     total energy              =    -195.55190123 Ry
     estimated scf accuracy    <       0.00339409 Ry

     iteration #  2     ecut=    75.00 Ry     beta= 0.70
     Davidson diagonalization with overlap
     ethr =  2.12E-05,  avg # of iterations =  2.0

     total cpu time spent up to now is      894.7 secs

     total energy              =    -195.55242324 Ry
     estimated scf accuracy    <       0.00019040 Ry

     iteration #  3     ecut=    75.00 Ry     beta= 0.70
     Davidson diagonalization with overlap
     ethr =  1.19E-06,  avg # of iterations =  2.4

     total cpu time spent up to now is     1093.3 secs

     total energy              =    -195.55247269 Ry
     estimated scf accuracy    <       0.00001797 Ry

     iteration #  4     ecut=    75.00 Ry     beta= 0.70
     Davidson diagonalization with overlap
     ethr =  1.12E-07,  avg # of iterations =  2.0

     total cpu time spent up to now is     1244.1 secs

     End of self-consistent calculation

     Number of k-points >= 100: set verbosity='high' to print the bands.

     the Fermi energy is     7.0985 ev

!    total energy              =    -195.55247476 Ry
     estimated scf accuracy    <       0.00000041 Ry
     smearing contrib. (-TS)   =      -0.00046924 Ry
     internal energy E=F+TS    =    -195.55200552 Ry

     The total energy is F=E-TS. E is the sum of the following terms:
     one-electron contribution =     -78.35859641 Ry
     hartree contribution      =      45.54927021 Ry
     xc contribution           =     -52.14507104 Ry
     ewald contribution        =    -110.59760828 Ry

     convergence has been achieved in   4 iterations

     Writing all to output data dir ../tmp/po.save/

     init_run     :    218.63s CPU     48.99s WALL (       1 calls)
     electrons    :   3837.36s CPU   1195.01s WALL (       1 calls)

     Called by init_run:
     wfcinit      :    214.71s CPU     47.45s WALL (       1 calls)
     potinit      :      0.12s CPU      0.02s WALL (       1 calls)
     hinit0       :      3.61s CPU      1.45s WALL (       1 calls)

     Called by electrons:
     c_bands      :   3191.19s CPU   1039.93s WALL (       5 calls)
     sum_band     :    645.35s CPU    154.91s WALL (       5 calls)
     v_of_rho     :      0.39s CPU      0.07s WALL (       5 calls)
     newd         :      0.60s CPU      0.13s WALL (       5 calls)
     mix_rho      :      0.04s CPU      0.02s WALL (       5 calls)

     Called by c_bands:
     init_us_2    :      3.00s CPU      0.77s WALL (    1276 calls)
     init_us_2:cp :      2.99s CPU      0.76s WALL (    1276 calls)
     cegterg      :   3186.72s CPU   1038.73s WALL (     580 calls)

     Called by *egterg:
     cdiaghg      :      1.03s CPU      0.30s WALL (    2328 calls)
     h_psi        :   3386.80s CPU   1081.57s WALL (    2560 calls)
     s_psi        :      1.27s CPU      0.37s WALL (    2560 calls)
     g_psi        :      0.84s CPU      0.32s WALL (    1864 calls)

     Called by h_psi:
     h_psi:calbec :      5.22s CPU      1.32s WALL (    2560 calls)
     vloc_psi     :   3379.21s CPU   1079.51s WALL (    2560 calls)
     add_vuspsi   :      1.37s CPU      0.40s WALL (    2560 calls)

     General routines
     calbec       :      7.00s CPU      1.73s WALL (    3140 calls)
     fft          :      3.48s CPU      1.24s WALL (      56 calls)
     ffts         :      0.02s CPU      0.00s WALL (       5 calls)
     fftw         :   3982.43s CPU   1223.51s WALL (   45858 calls)

     Parallel routines

     PWSCF        :      1h 7m CPU  20m44.84s WALL


   This run was terminated on:  23:34:45  12Mar2022            

=------------------------------------------------------------------------------=
   JOB DONE.
=------------------------------------------------------------------------------=
