
     Program PWSCF v.7.0 starts on 13Mar2022 at 12:19:47 

     This program is part of the open-source Quantum ESPRESSO suite
     for quantum simulation of materials; please cite
         "P. Giannozzi et al., J. Phys.:Condens. Matter 21 395502 (2009);
         "P. Giannozzi et al., J. Phys.:Condens. Matter 29 465901 (2017);
         "P. Giannozzi et al., J. Chem. Phys. 152 154105 (2020);
          URL http://www.quantum-espresso.org", 
     in publications or presentations arising from this work. More details at
     http://www.quantum-espresso.org/quote

     Parallel version (MPI & OpenMP), running on      10 processor cores
     Number of MPI processes:                 1
     Threads/MPI process:                    10

     MPI processes distributed on     1 nodes
     0 MiB available memory on the printing compute node when the environment starts

     Reading input from po.scf.edge4.9116848019.angle0.2588.in

     Current dimensions of program PWSCF are:
     Max number of different atomic species (ntypx) = 10
     Max number of k-points (npk) =  40000
     Max angular momentum in pseudopotentials (lmaxx) =  4
     file Po.pbe-dn-rrkjus_psl.1.0.0.UPF: wavefunction(s)  5D renormalized

     Subspace diagonalization in iterative solution of the eigenvalue problem:
     a serial algorithm will be used


     G-vector sticks info
     --------------------
     sticks:   dense  smooth     PW     G-vecs:    dense   smooth      PW
     Sum         561     561    181                 9565     9565    1733

     Using Slab Decomposition



     bravais-lattice index     =            5
     lattice parameter (alat)  =       4.9117  a.u.
     unit-cell volume          =     108.1946 (a.u.)^3
     number of atoms/cell      =            1
     number of atomic types    =            1
     number of electrons       =        16.00
     number of Kohn-Sham states=           12
     kinetic-energy cutoff     =      75.0000  Ry
     charge density cutoff     =     300.0000  Ry
     scf convergence threshold =      1.0E-06
     mixing beta               =       0.7000
     number of iterations used =            8  plain     mixing
     Exchange-correlation= PBE
                           (   1   4   3   4   0   0   0)

     celldm(1)=   4.911685  celldm(2)=   0.000000  celldm(3)=   0.000000
     celldm(4)=   0.258800  celldm(5)=   0.000000  celldm(6)=   0.000000

     crystal axes: (cart. coord. in units of alat)
               a(1) = (   0.608769  -0.351473   0.711243 )  
               a(2) = (   0.000000   0.702946   0.711243 )  
               a(3) = (  -0.608769  -0.351473   0.711243 )  

     reciprocal axes: (cart. coord. in units 2 pi/alat)
               b(1) = (  0.821329 -0.474195  0.468663 )  
               b(2) = (  0.000000  0.948389  0.468663 )  
               b(3) = ( -0.821329 -0.474195  0.468663 )  


     PseudoPot. # 1 for Po read from file:
     ../pseudo/Po.pbe-dn-rrkjus_psl.1.0.0.UPF
     MD5 check sum: 93671b84bf7252fd23d3fb506349bc50
     Pseudo is Ultrasoft + core correction, Zval = 16.0
     Generated using &quot;atomic&quot; code by A. Dal Corso  v.6.2.2
     Using radial grid of 1283 points,  6 beta functions with: 
                l(1) =   0
                l(2) =   0
                l(3) =   1
                l(4) =   1
                l(5) =   2
                l(6) =   2
     Q(r) pseudized with 0 coefficients 


     atomic species   valence    mass     pseudopotential
        Po            16.00   209.00000     Po( 1.00)

     12 Sym. Ops., with inversion, found



   Cartesian axes

     site n.     atom                  positions (alat units)
         1           Po  tau(   1) = (   0.0000000   0.0000000   0.0000000  )

     number of k points=   116  Marzari-Vanderbilt smearing, width (Ry)=  0.0600

     Number of k-points >= 100: set verbosity='high' to print them.

     Dense  grid:     9565 G-vectors     FFT dimensions: (  27,  27,  27)

     Estimated max dynamical RAM per process >      59.77 MB

     Initial potential from superposition of free atoms

     starting charge      15.9996, renormalised to      16.0000
     Starting wfcs are    9 randomized atomic wfcs +    3 random wfcs

     total cpu time spent up to now is       31.3 secs

     Self-consistent Calculation

     iteration #  1     ecut=    75.00 Ry     beta= 0.70
     Davidson diagonalization with overlap
     ethr =  1.00E-02,  avg # of iterations =  5.6

     Threshold (ethr) on eigenvalues was too large:
     Diagonalizing with lowered threshold

     Davidson diagonalization with overlap
     ethr =  1.62E-05,  avg # of iterations =  6.1

     total cpu time spent up to now is      274.5 secs

     total energy              =    -195.07833719 Ry
     estimated scf accuracy    <       0.00282175 Ry

     iteration #  2     ecut=    75.00 Ry     beta= 0.70
     Davidson diagonalization with overlap
     ethr =  1.76E-05,  avg # of iterations =  1.2

     total cpu time spent up to now is      350.7 secs

     total energy              =    -195.07846246 Ry
     estimated scf accuracy    <       0.00016816 Ry

     iteration #  3     ecut=    75.00 Ry     beta= 0.70
     Davidson diagonalization with overlap
     ethr =  1.05E-06,  avg # of iterations =  2.2

     total cpu time spent up to now is      442.0 secs

     total energy              =    -195.07847786 Ry
     estimated scf accuracy    <       0.00000568 Ry

     iteration #  4     ecut=    75.00 Ry     beta= 0.70
     Davidson diagonalization with overlap
     ethr =  3.55E-08,  avg # of iterations =  2.7

     total cpu time spent up to now is      554.2 secs

     End of self-consistent calculation

     Number of k-points >= 100: set verbosity='high' to print the bands.

     the Fermi energy is    29.3785 ev

!    total energy              =    -195.07847940 Ry
     estimated scf accuracy    <       0.00000012 Ry
     smearing contrib. (-TS)   =      -0.00112769 Ry
     internal energy E=F+TS    =    -195.07735170 Ry

     The total energy is F=E-TS. E is the sum of the following terms:
     one-electron contribution =     -12.68727457 Ry
     hartree contribution      =      24.43536738 Ry
     xc contribution           =     -53.09949787 Ry
     ewald contribution        =    -153.72594665 Ry

     convergence has been achieved in   4 iterations

     Writing all to output data dir ../tmp/po.save/

     init_run     :    130.10s CPU     31.15s WALL (       1 calls)
     electrons    :   1977.23s CPU    522.86s WALL (       1 calls)

     Called by init_run:
     wfcinit      :    127.47s CPU     30.17s WALL (       1 calls)
     potinit      :      0.05s CPU      0.01s WALL (       1 calls)
     hinit0       :      2.48s CPU      0.95s WALL (       1 calls)

     Called by electrons:
     c_bands      :   1671.37s CPU    447.43s WALL (       5 calls)
     sum_band     :    305.49s CPU     75.34s WALL (       5 calls)
     v_of_rho     :      0.16s CPU      0.03s WALL (       5 calls)
     newd         :      0.24s CPU      0.05s WALL (       5 calls)
     mix_rho      :      0.01s CPU      0.00s WALL (       5 calls)

     Called by c_bands:
     init_us_2    :      1.18s CPU      0.31s WALL (    1276 calls)
     init_us_2:cp :      1.17s CPU      0.31s WALL (    1276 calls)
     cegterg      :   1669.83s CPU    447.00s WALL (     580 calls)

     Called by *egterg:
     cdiaghg      :      1.14s CPU      0.33s WALL (    2536 calls)
     h_psi        :   1787.94s CPU    474.07s WALL (    2768 calls)
     s_psi        :      0.72s CPU      0.24s WALL (    2768 calls)
     g_psi        :      0.71s CPU      0.26s WALL (    2072 calls)

     Called by h_psi:
     h_psi:calbec :      2.11s CPU      0.53s WALL (    2768 calls)
     vloc_psi     :   1784.20s CPU    473.00s WALL (    2768 calls)
     add_vuspsi   :      0.77s CPU      0.27s WALL (    2768 calls)

     General routines
     calbec       :      2.78s CPU      0.69s WALL (    3348 calls)
     fft          :      2.32s CPU      0.73s WALL (      56 calls)
     ffts         :      0.01s CPU      0.00s WALL (       5 calls)
     fftw         :   2059.49s CPU    540.59s WALL (   47414 calls)

     Parallel routines

     PWSCF        :  35m 8.43s CPU   9m14.84s WALL


   This run was terminated on:  12:29: 2  13Mar2022            

=------------------------------------------------------------------------------=
   JOB DONE.
=------------------------------------------------------------------------------=
