
     Program PWSCF v.7.0 starts on 13Mar2022 at 11:51:20 

     This program is part of the open-source Quantum ESPRESSO suite
     for quantum simulation of materials; please cite
         "P. Giannozzi et al., J. Phys.:Condens. Matter 21 395502 (2009);
         "P. Giannozzi et al., J. Phys.:Condens. Matter 29 465901 (2017);
         "P. Giannozzi et al., J. Chem. Phys. 152 154105 (2020);
          URL http://www.quantum-espresso.org", 
     in publications or presentations arising from this work. More details at
     http://www.quantum-espresso.org/quote

     Parallel version (MPI & OpenMP), running on      10 processor cores
     Number of MPI processes:                 1
     Threads/MPI process:                    10

     MPI processes distributed on     1 nodes
     0 MiB available memory on the printing compute node when the environment starts

     Reading input from po.scf.edge5.6116848019.angle0.0872.in

     Current dimensions of program PWSCF are:
     Max number of different atomic species (ntypx) = 10
     Max number of k-points (npk) =  40000
     Max angular momentum in pseudopotentials (lmaxx) =  4
     file Po.pbe-dn-rrkjus_psl.1.0.0.UPF: wavefunction(s)  5D renormalized

     Subspace diagonalization in iterative solution of the eigenvalue problem:
     a serial algorithm will be used


     G-vector sticks info
     --------------------
     sticks:   dense  smooth     PW     G-vecs:    dense   smooth      PW
     Sum         751     751    231                15367    15367    2633

     Using Slab Decomposition



     bravais-lattice index     =            5
     lattice parameter (alat)  =       5.6117  a.u.
     unit-cell volume          =     174.8089 (a.u.)^3
     number of atoms/cell      =            1
     number of atomic types    =            1
     number of electrons       =        16.00
     number of Kohn-Sham states=           12
     kinetic-energy cutoff     =      75.0000  Ry
     charge density cutoff     =     300.0000  Ry
     scf convergence threshold =      1.0E-06
     mixing beta               =       0.7000
     number of iterations used =            8  plain     mixing
     Exchange-correlation= PBE
                           (   1   4   3   4   0   0   0)

     celldm(1)=   5.611685  celldm(2)=   0.000000  celldm(3)=   0.000000
     celldm(4)=   0.087200  celldm(5)=   0.000000  celldm(6)=   0.000000

     crystal axes: (cart. coord. in units of alat)
               a(1) = (   0.675574  -0.390043   0.625673 )  
               a(2) = (   0.000000   0.780085   0.625673 )  
               a(3) = (  -0.675574  -0.390043   0.625673 )  

     reciprocal axes: (cart. coord. in units 2 pi/alat)
               b(1) = (  0.740112 -0.427304  0.532760 )  
               b(2) = (  0.000000  0.854607  0.532760 )  
               b(3) = ( -0.740112 -0.427304  0.532760 )  


     PseudoPot. # 1 for Po read from file:
     ../pseudo/Po.pbe-dn-rrkjus_psl.1.0.0.UPF
     MD5 check sum: 93671b84bf7252fd23d3fb506349bc50
     Pseudo is Ultrasoft + core correction, Zval = 16.0
     Generated using &quot;atomic&quot; code by A. Dal Corso  v.6.2.2
     Using radial grid of 1283 points,  6 beta functions with: 
                l(1) =   0
                l(2) =   0
                l(3) =   1
                l(4) =   1
                l(5) =   2
                l(6) =   2
     Q(r) pseudized with 0 coefficients 


     atomic species   valence    mass     pseudopotential
        Po            16.00   209.00000     Po( 1.00)

     12 Sym. Ops., with inversion, found



   Cartesian axes

     site n.     atom                  positions (alat units)
         1           Po  tau(   1) = (   0.0000000   0.0000000   0.0000000  )

     number of k points=   116  Marzari-Vanderbilt smearing, width (Ry)=  0.0600

     Number of k-points >= 100: set verbosity='high' to print them.

     Dense  grid:    15367 G-vectors     FFT dimensions: (  32,  32,  32)

     Estimated max dynamical RAM per process >      95.47 MB

     Check: negative core charge=   -0.000002

     Initial potential from superposition of free atoms

     starting charge      15.9996, renormalised to      16.0000
     Starting wfcs are    9 randomized atomic wfcs +    3 random wfcs

     total cpu time spent up to now is        5.5 secs

     Self-consistent Calculation

     iteration #  1     ecut=    75.00 Ry     beta= 0.70
     Davidson diagonalization with overlap
     ethr =  1.00E-02,  avg # of iterations =  5.1

     Threshold (ethr) on eigenvalues was too large:
     Diagonalizing with lowered threshold

     Davidson diagonalization with overlap
     c_bands:  1 eigenvalues not converged
     ethr =  1.12E-05,  avg # of iterations =  5.7

     total cpu time spent up to now is       38.2 secs

     total energy              =    -195.51299219 Ry
     estimated scf accuracy    <       0.00185800 Ry

     iteration #  2     ecut=    75.00 Ry     beta= 0.70
     Davidson diagonalization with overlap
     ethr =  1.16E-05,  avg # of iterations =  1.1

     total cpu time spent up to now is       48.9 secs

     total energy              =    -195.51304586 Ry
     estimated scf accuracy    <       0.00013175 Ry

     iteration #  3     ecut=    75.00 Ry     beta= 0.70
     Davidson diagonalization with overlap
     ethr =  8.23E-07,  avg # of iterations =  1.6

     total cpu time spent up to now is       59.3 secs

     total energy              =    -195.51305255 Ry
     estimated scf accuracy    <       0.00000288 Ry

     iteration #  4     ecut=    75.00 Ry     beta= 0.70
     Davidson diagonalization with overlap
     ethr =  1.80E-08,  avg # of iterations =  3.3

     total cpu time spent up to now is       85.4 secs

     End of self-consistent calculation

     Number of k-points >= 100: set verbosity='high' to print the bands.

     the Fermi energy is    16.5332 ev

!    total energy              =    -195.51305383 Ry
     estimated scf accuracy    <       0.00000010 Ry
     smearing contrib. (-TS)   =      -0.00006686 Ry
     internal energy E=F+TS    =    -195.51298697 Ry

     The total energy is F=E-TS. E is the sum of the following terms:
     one-electron contribution =     -48.35990043 Ry
     hartree contribution      =      35.44780174 Ry
     xc contribution           =     -52.53989077 Ry
     ewald contribution        =    -130.06099752 Ry

     convergence has been achieved in   4 iterations

     Writing all to output data dir ../tmp/po.save/

     init_run     :     21.11s CPU      5.38s WALL (       1 calls)
     electrons    :    280.15s CPU     79.90s WALL (       1 calls)

     Called by init_run:
     wfcinit      :     18.54s CPU      4.35s WALL (       1 calls)
     potinit      :      0.08s CPU      0.01s WALL (       1 calls)
     hinit0       :      2.40s CPU      0.97s WALL (       1 calls)

     Called by electrons:
     c_bands      :    235.46s CPU     69.74s WALL (       5 calls)
     sum_band     :     44.21s CPU     10.06s WALL (       5 calls)
     v_of_rho     :      0.19s CPU      0.03s WALL (       5 calls)
     newd         :      0.33s CPU      0.07s WALL (       5 calls)
     mix_rho      :      0.02s CPU      0.01s WALL (       5 calls)

     Called by c_bands:
     init_us_2    :      1.62s CPU      0.42s WALL (    1276 calls)
     init_us_2:cp :      1.61s CPU      0.42s WALL (    1276 calls)
     cegterg      :    232.99s CPU     69.10s WALL (     580 calls)

     Called by *egterg:
     cdiaghg      :      1.08s CPU      0.31s WALL (    2403 calls)
     h_psi        :    240.81s CPU     70.01s WALL (    2635 calls)
     s_psi        :      0.91s CPU      0.28s WALL (    2635 calls)
     g_psi        :      0.73s CPU      0.26s WALL (    1939 calls)

     Called by h_psi:
     h_psi:calbec :      2.63s CPU      0.68s WALL (    2635 calls)
     vloc_psi     :    236.36s CPU     68.76s WALL (    2635 calls)
     add_vuspsi   :      0.95s CPU      0.30s WALL (    2635 calls)

     General routines
     calbec       :      3.56s CPU      0.89s WALL (    3215 calls)
     fft          :      2.21s CPU      0.74s WALL (      56 calls)
     ffts         :      0.01s CPU      0.00s WALL (       5 calls)
     fftw         :    246.96s CPU     69.68s WALL (   46272 calls)

     Parallel routines

     PWSCF        :   5m 2.51s CPU   1m26.14s WALL


   This run was terminated on:  11:52:46  13Mar2022            

=------------------------------------------------------------------------------=
   JOB DONE.
=------------------------------------------------------------------------------=
