
     Program PWSCF v.7.0 starts on 13Mar2022 at  8: 6:52 

     This program is part of the open-source Quantum ESPRESSO suite
     for quantum simulation of materials; please cite
         "P. Giannozzi et al., J. Phys.:Condens. Matter 21 395502 (2009);
         "P. Giannozzi et al., J. Phys.:Condens. Matter 29 465901 (2017);
         "P. Giannozzi et al., J. Chem. Phys. 152 154105 (2020);
          URL http://www.quantum-espresso.org", 
     in publications or presentations arising from this work. More details at
     http://www.quantum-espresso.org/quote

     Parallel version (MPI & OpenMP), running on      10 processor cores
     Number of MPI processes:                 1
     Threads/MPI process:                    10

     MPI processes distributed on     1 nodes
     0 MiB available memory on the printing compute node when the environment starts

     Reading input from po.scf.edge6.3116848019.angle0.2588.in

     Current dimensions of program PWSCF are:
     Max number of different atomic species (ntypx) = 10
     Max number of k-points (npk) =  40000
     Max angular momentum in pseudopotentials (lmaxx) =  4
     file Po.pbe-dn-rrkjus_psl.1.0.0.UPF: wavefunction(s)  5D renormalized

     Subspace diagonalization in iterative solution of the eigenvalue problem:
     a serial algorithm will be used


     G-vector sticks info
     --------------------
     sticks:   dense  smooth     PW     G-vecs:    dense   smooth      PW
     Sum         923     923    281                20185    20185    3385

     Using Slab Decomposition



     bravais-lattice index     =            5
     lattice parameter (alat)  =       6.3117  a.u.
     unit-cell volume          =     229.5884 (a.u.)^3
     number of atoms/cell      =            1
     number of atomic types    =            1
     number of electrons       =        16.00
     number of Kohn-Sham states=           12
     kinetic-energy cutoff     =      75.0000  Ry
     charge density cutoff     =     300.0000  Ry
     scf convergence threshold =      1.0E-06
     mixing beta               =       0.7000
     number of iterations used =            8  plain     mixing
     Exchange-correlation= PBE
                           (   1   4   3   4   0   0   0)

     celldm(1)=   6.311685  celldm(2)=   0.000000  celldm(3)=   0.000000
     celldm(4)=   0.258800  celldm(5)=   0.000000  celldm(6)=   0.000000

     crystal axes: (cart. coord. in units of alat)
               a(1) = (   0.608769  -0.351473   0.711243 )  
               a(2) = (   0.000000   0.702946   0.711243 )  
               a(3) = (  -0.608769  -0.351473   0.711243 )  

     reciprocal axes: (cart. coord. in units 2 pi/alat)
               b(1) = (  0.821329 -0.474195  0.468663 )  
               b(2) = (  0.000000  0.948389  0.468663 )  
               b(3) = ( -0.821329 -0.474195  0.468663 )  


     PseudoPot. # 1 for Po read from file:
     ../pseudo/Po.pbe-dn-rrkjus_psl.1.0.0.UPF
     MD5 check sum: 93671b84bf7252fd23d3fb506349bc50
     Pseudo is Ultrasoft + core correction, Zval = 16.0
     Generated using &quot;atomic&quot; code by A. Dal Corso  v.6.2.2
     Using radial grid of 1283 points,  6 beta functions with: 
                l(1) =   0
                l(2) =   0
                l(3) =   1
                l(4) =   1
                l(5) =   2
                l(6) =   2
     Q(r) pseudized with 0 coefficients 


     atomic species   valence    mass     pseudopotential
        Po            16.00   209.00000     Po( 1.00)

     12 Sym. Ops., with inversion, found



   Cartesian axes

     site n.     atom                  positions (alat units)
         1           Po  tau(   1) = (   0.0000000   0.0000000   0.0000000  )

     number of k points=   116  Marzari-Vanderbilt smearing, width (Ry)=  0.0600

     Number of k-points >= 100: set verbosity='high' to print them.

     Dense  grid:    20185 G-vectors     FFT dimensions: (  36,  36,  36)

     Estimated max dynamical RAM per process >     125.22 MB

     Check: negative core charge=   -0.000002

     Initial potential from superposition of free atoms

     starting charge      15.9996, renormalised to      16.0000
     Starting wfcs are    9 randomized atomic wfcs +    3 random wfcs

     total cpu time spent up to now is       56.0 secs

     Self-consistent Calculation

     iteration #  1     ecut=    75.00 Ry     beta= 0.70
     Davidson diagonalization with overlap
     ethr =  1.00E-02,  avg # of iterations =  4.3

     Threshold (ethr) on eigenvalues was too large:
     Diagonalizing with lowered threshold

     Davidson diagonalization with overlap
     ethr =  9.00E-06,  avg # of iterations =  5.8

     total cpu time spent up to now is      389.8 secs

     total energy              =    -195.57748128 Ry
     estimated scf accuracy    <       0.00147929 Ry

     iteration #  2     ecut=    75.00 Ry     beta= 0.70
     Davidson diagonalization with overlap
     ethr =  9.25E-06,  avg # of iterations =  2.0

     total cpu time spent up to now is      551.5 secs

     total energy              =    -195.57767146 Ry
     estimated scf accuracy    <       0.00011668 Ry

     iteration #  3     ecut=    75.00 Ry     beta= 0.70
     Davidson diagonalization with overlap
     ethr =  7.29E-07,  avg # of iterations =  2.1

     total cpu time spent up to now is      756.5 secs

     total energy              =    -195.57768998 Ry
     estimated scf accuracy    <       0.00000946 Ry

     iteration #  4     ecut=    75.00 Ry     beta= 0.70
     Davidson diagonalization with overlap
     ethr =  5.91E-08,  avg # of iterations =  2.0

     total cpu time spent up to now is      878.8 secs

     End of self-consistent calculation

     Number of k-points >= 100: set verbosity='high' to print the bands.

     the Fermi energy is    10.8803 ev

!    total energy              =    -195.57769105 Ry
     estimated scf accuracy    <       0.00000010 Ry
     smearing contrib. (-TS)   =       0.00090148 Ry
     internal energy E=F+TS    =    -195.57859254 Ry

     The total energy is F=E-TS. E is the sum of the following terms:
     one-electron contribution =     -64.14118863 Ry
     hartree contribution      =      40.47790086 Ry
     xc contribution           =     -52.28743685 Ry
     ewald contribution        =    -119.62786792 Ry

     convergence has been achieved in   4 iterations

     Writing all to output data dir ../tmp/po.save/

     init_run     :    198.28s CPU     55.90s WALL (       1 calls)
     electrons    :   3068.76s CPU    822.79s WALL (       1 calls)

     Called by init_run:
     wfcinit      :    193.97s CPU     53.82s WALL (       1 calls)
     potinit      :      0.08s CPU      0.01s WALL (       1 calls)
     hinit0       :      4.06s CPU      2.01s WALL (       1 calls)

     Called by electrons:
     c_bands      :   2528.78s CPU    687.10s WALL (       5 calls)
     sum_band     :    539.37s CPU    135.53s WALL (       5 calls)
     v_of_rho     :      0.33s CPU      0.08s WALL (       5 calls)
     newd         :      0.42s CPU      0.10s WALL (       5 calls)
     mix_rho      :      0.02s CPU      0.01s WALL (       5 calls)

     Called by c_bands:
     init_us_2    :      2.42s CPU      0.62s WALL (    1276 calls)
     init_us_2:cp :      2.41s CPU      0.62s WALL (    1276 calls)
     cegterg      :   2525.18s CPU    686.18s WALL (     580 calls)

     Called by *egterg:
     cdiaghg      :      1.03s CPU      0.29s WALL (    2334 calls)
     h_psi        :   2706.47s CPU    736.10s WALL (    2566 calls)
     s_psi        :      1.09s CPU      0.32s WALL (    2566 calls)
     g_psi        :      0.76s CPU      0.26s WALL (    1870 calls)

     Called by h_psi:
     h_psi:calbec :      4.02s CPU      1.00s WALL (    2566 calls)
     vloc_psi     :   2700.39s CPU    734.48s WALL (    2566 calls)
     add_vuspsi   :      1.18s CPU      0.35s WALL (    2566 calls)

     General routines
     calbec       :      5.39s CPU      1.32s WALL (    3146 calls)
     fft          :      3.96s CPU      1.81s WALL (      56 calls)
     ffts         :      0.01s CPU      0.00s WALL (       5 calls)
     fftw         :   3203.21s CPU    860.62s WALL (   46316 calls)

     Parallel routines

     PWSCF        :  54m28.80s CPU  14m39.44s WALL


   This run was terminated on:   8:21:32  13Mar2022            

=------------------------------------------------------------------------------=
   JOB DONE.
=------------------------------------------------------------------------------=
