
     Program PWSCF v.7.0 starts on 14Mar2022 at 10:47:34 

     This program is part of the open-source Quantum ESPRESSO suite
     for quantum simulation of materials; please cite
         "P. Giannozzi et al., J. Phys.:Condens. Matter 21 395502 (2009);
         "P. Giannozzi et al., J. Phys.:Condens. Matter 29 465901 (2017);
         "P. Giannozzi et al., J. Chem. Phys. 152 154105 (2020);
          URL http://www.quantum-espresso.org", 
     in publications or presentations arising from this work. More details at
     http://www.quantum-espresso.org/quote

     Parallel version (MPI & OpenMP), running on      10 processor cores
     Number of MPI processes:                 1
     Threads/MPI process:                    10

     MPI processes distributed on     1 nodes
     0 MiB available memory on the printing compute node when the environment starts

     Reading input from po.scf.edge6.3116848019.angle-0.0872.in

     Current dimensions of program PWSCF are:
     Max number of different atomic species (ntypx) = 10
     Max number of k-points (npk) =  40000
     Max angular momentum in pseudopotentials (lmaxx) =  4
     file Po.pbe-dn-rrkjus_psl.1.0.0.UPF: wavefunction(s)  5D renormalized

     Subspace diagonalization in iterative solution of the eigenvalue problem:
     a serial algorithm will be used


     G-vector sticks info
     --------------------
     sticks:   dense  smooth     PW     G-vecs:    dense   smooth      PW
     Sum         959     959    295                21835    21835    3719

     Using Slab Decomposition



     bravais-lattice index     =            5
     lattice parameter (alat)  =       6.3117  a.u.
     unit-cell volume          =     248.3878 (a.u.)^3
     number of atoms/cell      =            1
     number of atomic types    =            1
     number of electrons       =        16.00
     number of Kohn-Sham states=           12
     kinetic-energy cutoff     =      75.0000  Ry
     charge density cutoff     =     300.0000  Ry
     scf convergence threshold =      1.0E-06
     mixing beta               =       0.7000
     number of iterations used =            8  plain     mixing
     Exchange-correlation= PBE
                           (   1   4   3   4   0   0   0)

     celldm(1)=   6.311685  celldm(2)=   0.000000  celldm(3)=   0.000000
     celldm(4)=  -0.087200  celldm(5)=   0.000000  celldm(6)=   0.000000

     crystal axes: (cart. coord. in units of alat)
               a(1) = (   0.737292  -0.425676   0.524595 )  
               a(2) = (   0.000000   0.851352   0.524595 )  
               a(3) = (  -0.737292  -0.425676   0.524595 )  

     reciprocal axes: (cart. coord. in units 2 pi/alat)
               b(1) = (  0.678157 -0.391534  0.635411 )  
               b(2) = (  0.000000  0.783068  0.635411 )  
               b(3) = ( -0.678157 -0.391534  0.635411 )  


     PseudoPot. # 1 for Po read from file:
     ../../pseudo/Po.pbe-dn-rrkjus_psl.1.0.0.UPF
     MD5 check sum: 93671b84bf7252fd23d3fb506349bc50
     Pseudo is Ultrasoft + core correction, Zval = 16.0
     Generated using &quot;atomic&quot; code by A. Dal Corso  v.6.2.2
     Using radial grid of 1283 points,  6 beta functions with: 
                l(1) =   0
                l(2) =   0
                l(3) =   1
                l(4) =   1
                l(5) =   2
                l(6) =   2
     Q(r) pseudized with 0 coefficients 


     atomic species   valence    mass     pseudopotential
        Po            16.00   209.00000     Po( 1.00)

     12 Sym. Ops., with inversion, found



   Cartesian axes

     site n.     atom                  positions (alat units)
         1           Po  tau(   1) = (   0.0000000   0.0000000   0.0000000  )

     number of k points=   116  Marzari-Vanderbilt smearing, width (Ry)=  0.0600

     Number of k-points >= 100: set verbosity='high' to print them.

     Dense  grid:    21835 G-vectors     FFT dimensions: (  36,  36,  36)

     Estimated max dynamical RAM per process >     135.08 MB

     Check: negative core charge=   -0.000002

     Initial potential from superposition of free atoms

     starting charge      15.9996, renormalised to      16.0000
     Starting wfcs are    9 randomized atomic wfcs +    3 random wfcs

     total cpu time spent up to now is       43.7 secs

     Self-consistent Calculation

     iteration #  1     ecut=    75.00 Ry     beta= 0.70
     Davidson diagonalization with overlap
     ethr =  1.00E-02,  avg # of iterations =  4.8

     Threshold (ethr) on eigenvalues was too large:
     Diagonalizing with lowered threshold

     Davidson diagonalization with overlap
     c_bands:  1 eigenvalues not converged
     ethr =  8.68E-06,  avg # of iterations =  6.4

     total cpu time spent up to now is      402.6 secs

     total energy              =    -195.58588306 Ry
     estimated scf accuracy    <       0.00143991 Ry

     iteration #  2     ecut=    75.00 Ry     beta= 0.70
     Davidson diagonalization with overlap
     ethr =  9.00E-06,  avg # of iterations =  2.0

     total cpu time spent up to now is      524.6 secs

     total energy              =    -195.58604318 Ry
     estimated scf accuracy    <       0.00013073 Ry

     iteration #  3     ecut=    75.00 Ry     beta= 0.70
     Davidson diagonalization with overlap
     ethr =  8.17E-07,  avg # of iterations =  2.1

     total cpu time spent up to now is      662.4 secs

     total energy              =    -195.58605823 Ry
     estimated scf accuracy    <       0.00000808 Ry

     iteration #  4     ecut=    75.00 Ry     beta= 0.70
     Davidson diagonalization with overlap
     ethr =  5.05E-08,  avg # of iterations =  2.0

     total cpu time spent up to now is      793.5 secs

     End of self-consistent calculation

     Number of k-points >= 100: set verbosity='high' to print the bands.

     the Fermi energy is     9.7691 ev

!    total energy              =    -195.58605932 Ry
     estimated scf accuracy    <       0.00000007 Ry
     smearing contrib. (-TS)   =       0.00080368 Ry
     internal energy E=F+TS    =    -195.58686301 Ry

     The total energy is F=E-TS. E is the sum of the following terms:
     one-electron contribution =     -70.68378759 Ry
     hartree contribution      =      43.08178042 Ry
     xc contribution           =     -52.26917430 Ry
     ewald contribution        =    -115.71568154 Ry

     convergence has been achieved in   4 iterations

     Writing all to output data dir ../../tmp/po.save/

     init_run     :    195.15s CPU     43.50s WALL (       1 calls)
     electrons    :   2913.64s CPU    749.85s WALL (       1 calls)

     Called by init_run:
     wfcinit      :    191.69s CPU     42.15s WALL (       1 calls)
     potinit      :      0.09s CPU      0.01s WALL (       1 calls)
     hinit0       :      3.20s CPU      1.27s WALL (       1 calls)

     Called by electrons:
     c_bands      :   2446.04s CPU    645.39s WALL (       5 calls)
     sum_band     :    466.93s CPU    104.30s WALL (       5 calls)
     v_of_rho     :      0.33s CPU      0.06s WALL (       5 calls)
     newd         :      0.49s CPU      0.11s WALL (       5 calls)
     mix_rho      :      0.02s CPU      0.01s WALL (       5 calls)

     Called by c_bands:
     init_us_2    :      2.71s CPU      0.68s WALL (    1276 calls)
     init_us_2:cp :      2.70s CPU      0.68s WALL (    1276 calls)
     cegterg      :   2442.40s CPU    644.48s WALL (     580 calls)

     Called by *egterg:
     cdiaghg      :      1.09s CPU      0.31s WALL (    2463 calls)
     h_psi        :   2620.68s CPU    682.63s WALL (    2695 calls)
     s_psi        :      1.15s CPU      0.34s WALL (    2695 calls)
     g_psi        :      0.78s CPU      0.26s WALL (    1999 calls)

     Called by h_psi:
     h_psi:calbec :      4.55s CPU      1.11s WALL (    2695 calls)
     vloc_psi     :   2613.99s CPU    680.88s WALL (    2695 calls)
     add_vuspsi   :      1.25s CPU      0.37s WALL (    2695 calls)

     General routines
     calbec       :      6.11s CPU      1.47s WALL (    3275 calls)
     fft          :      3.08s CPU      1.06s WALL (      56 calls)
     ffts         :      0.02s CPU      0.00s WALL (       5 calls)
     fftw         :   3046.77s CPU    776.88s WALL (   45898 calls)

     Parallel routines

     PWSCF        :  51m50.17s CPU  13m14.02s WALL


   This run was terminated on:  11: 0:48  14Mar2022            

=------------------------------------------------------------------------------=
   JOB DONE.
=------------------------------------------------------------------------------=
