
     Program PWSCF v.7.0 starts on 14Mar2022 at  9:17:13 

     This program is part of the open-source Quantum ESPRESSO suite
     for quantum simulation of materials; please cite
         "P. Giannozzi et al., J. Phys.:Condens. Matter 21 395502 (2009);
         "P. Giannozzi et al., J. Phys.:Condens. Matter 29 465901 (2017);
         "P. Giannozzi et al., J. Chem. Phys. 152 154105 (2020);
          URL http://www.quantum-espresso.org", 
     in publications or presentations arising from this work. More details at
     http://www.quantum-espresso.org/quote

     Parallel version (MPI & OpenMP), running on      10 processor cores
     Number of MPI processes:                 1
     Threads/MPI process:                    10

     MPI processes distributed on     1 nodes
     0 MiB available memory on the printing compute node when the environment starts

     Reading input from po.scf.edge6.3116848019.angle0.0872.in

     Current dimensions of program PWSCF are:
     Max number of different atomic species (ntypx) = 10
     Max number of k-points (npk) =  40000
     Max angular momentum in pseudopotentials (lmaxx) =  4
     file Po.pbe-dn-rrkjus_psl.1.0.0.UPF: wavefunction(s)  5D renormalized

     Subspace diagonalization in iterative solution of the eigenvalue problem:
     a serial algorithm will be used


     G-vector sticks info
     --------------------
     sticks:   dense  smooth     PW     G-vecs:    dense   smooth      PW
     Sum         959     959    283                21957    21957    3551

     Using Slab Decomposition



     bravais-lattice index     =            5
     lattice parameter (alat)  =       6.3117  a.u.
     unit-cell volume          =     248.7251 (a.u.)^3
     number of atoms/cell      =            1
     number of atomic types    =            1
     number of electrons       =        16.00
     number of Kohn-Sham states=           12
     kinetic-energy cutoff     =      75.0000  Ry
     charge density cutoff     =     300.0000  Ry
     scf convergence threshold =      1.0E-06
     mixing beta               =       0.7000
     number of iterations used =            8  plain     mixing
     Exchange-correlation= PBE
                           (   1   4   3   4   0   0   0)

     celldm(1)=   6.311685  celldm(2)=   0.000000  celldm(3)=   0.000000
     celldm(4)=   0.087200  celldm(5)=   0.000000  celldm(6)=   0.000000

     crystal axes: (cart. coord. in units of alat)
               a(1) = (   0.675574  -0.390043   0.625673 )  
               a(2) = (   0.000000   0.780085   0.625673 )  
               a(3) = (  -0.675574  -0.390043   0.625673 )  

     reciprocal axes: (cart. coord. in units 2 pi/alat)
               b(1) = (  0.740112 -0.427304  0.532760 )  
               b(2) = (  0.000000  0.854607  0.532760 )  
               b(3) = ( -0.740112 -0.427304  0.532760 )  


     PseudoPot. # 1 for Po read from file:
     ../../pseudo/Po.pbe-dn-rrkjus_psl.1.0.0.UPF
     MD5 check sum: 93671b84bf7252fd23d3fb506349bc50
     Pseudo is Ultrasoft + core correction, Zval = 16.0
     Generated using &quot;atomic&quot; code by A. Dal Corso  v.6.2.2
     Using radial grid of 1283 points,  6 beta functions with: 
                l(1) =   0
                l(2) =   0
                l(3) =   1
                l(4) =   1
                l(5) =   2
                l(6) =   2
     Q(r) pseudized with 0 coefficients 


     atomic species   valence    mass     pseudopotential
        Po            16.00   209.00000     Po( 1.00)

     12 Sym. Ops., with inversion, found



   Cartesian axes

     site n.     atom                  positions (alat units)
         1           Po  tau(   1) = (   0.0000000   0.0000000   0.0000000  )

     number of k points=   116  Marzari-Vanderbilt smearing, width (Ry)=  0.0600

     Number of k-points >= 100: set verbosity='high' to print them.

     Dense  grid:    21957 G-vectors     FFT dimensions: (  36,  36,  36)

     Estimated max dynamical RAM per process >     135.57 MB

     Check: negative core charge=   -0.000002

     Initial potential from superposition of free atoms

     starting charge      15.9996, renormalised to      16.0000
     Starting wfcs are    9 randomized atomic wfcs +    3 random wfcs

     total cpu time spent up to now is       44.5 secs

     Self-consistent Calculation

     iteration #  1     ecut=    75.00 Ry     beta= 0.70
     Davidson diagonalization with overlap
     ethr =  1.00E-02,  avg # of iterations =  4.6

     Threshold (ethr) on eigenvalues was too large:
     Diagonalizing with lowered threshold

     Davidson diagonalization with overlap
     ethr =  8.58E-06,  avg # of iterations =  6.8

     total cpu time spent up to now is      399.2 secs

     total energy              =    -195.58588192 Ry
     estimated scf accuracy    <       0.00142179 Ry

     iteration #  2     ecut=    75.00 Ry     beta= 0.70
     Davidson diagonalization with overlap
     ethr =  8.89E-06,  avg # of iterations =  1.9

     total cpu time spent up to now is      515.6 secs

     total energy              =    -195.58603927 Ry
     estimated scf accuracy    <       0.00013050 Ry

     iteration #  3     ecut=    75.00 Ry     beta= 0.70
     Davidson diagonalization with overlap
     ethr =  8.16E-07,  avg # of iterations =  2.1

     total cpu time spent up to now is      646.6 secs

     total energy              =    -195.58605409 Ry
     estimated scf accuracy    <       0.00000794 Ry

     iteration #  4     ecut=    75.00 Ry     beta= 0.70
     Davidson diagonalization with overlap
     ethr =  4.96E-08,  avg # of iterations =  2.0

     total cpu time spent up to now is      775.6 secs

     End of self-consistent calculation

     Number of k-points >= 100: set verbosity='high' to print the bands.

     the Fermi energy is     9.7524 ev

!    total energy              =    -195.58605517 Ry
     estimated scf accuracy    <       0.00000007 Ry
     smearing contrib. (-TS)   =       0.00075986 Ry
     internal energy E=F+TS    =    -195.58681503 Ry

     The total energy is F=E-TS. E is the sum of the following terms:
     one-electron contribution =     -70.82139003 Ry
     hartree contribution      =      43.14026817 Ry
     xc contribution           =     -52.26916410 Ry
     ewald contribution        =    -115.63652907 Ry

     convergence has been achieved in   4 iterations

     Writing all to output data dir ../../tmp/po.save/

     init_run     :    196.74s CPU     44.38s WALL (       1 calls)
     electrons    :   2861.44s CPU    731.03s WALL (       1 calls)

     Called by init_run:
     wfcinit      :    193.31s CPU     43.01s WALL (       1 calls)
     potinit      :      0.12s CPU      0.02s WALL (       1 calls)
     hinit0       :      3.17s CPU      1.29s WALL (       1 calls)

     Called by electrons:
     c_bands      :   2400.97s CPU    623.28s WALL (       5 calls)
     sum_band     :    459.75s CPU    107.58s WALL (       5 calls)
     v_of_rho     :      0.38s CPU      0.07s WALL (       5 calls)
     newd         :      0.44s CPU      0.11s WALL (       5 calls)
     mix_rho      :      0.03s CPU      0.01s WALL (       5 calls)

     Called by c_bands:
     init_us_2    :      2.67s CPU      0.68s WALL (    1276 calls)
     init_us_2:cp :      2.66s CPU      0.67s WALL (    1276 calls)
     cegterg      :   2397.24s CPU    622.35s WALL (     580 calls)

     Called by *egterg:
     cdiaghg      :      1.11s CPU      0.31s WALL (    2477 calls)
     h_psi        :   2577.00s CPU    661.28s WALL (    2709 calls)
     s_psi        :      1.16s CPU      0.34s WALL (    2709 calls)
     g_psi        :      0.78s CPU      0.26s WALL (    2013 calls)

     Called by h_psi:
     h_psi:calbec :      4.50s CPU      1.10s WALL (    2709 calls)
     vloc_psi     :   2570.32s CPU    659.54s WALL (    2709 calls)
     add_vuspsi   :      1.27s CPU      0.37s WALL (    2709 calls)

     General routines
     calbec       :      6.01s CPU      1.45s WALL (    3289 calls)
     fft          :      3.09s CPU      1.08s WALL (      56 calls)
     ffts         :      0.01s CPU      0.00s WALL (       5 calls)
     fftw         :   2995.10s CPU    758.62s WALL (   46028 calls)

     Parallel routines

     PWSCF        :  50m59.81s CPU  12m56.28s WALL


   This run was terminated on:   9:30: 9  14Mar2022            

=------------------------------------------------------------------------------=
   JOB DONE.
=------------------------------------------------------------------------------=
