
     Program PWSCF v.7.0 starts on 13Mar2022 at 19:25:37 

     This program is part of the open-source Quantum ESPRESSO suite
     for quantum simulation of materials; please cite
         "P. Giannozzi et al., J. Phys.:Condens. Matter 21 395502 (2009);
         "P. Giannozzi et al., J. Phys.:Condens. Matter 29 465901 (2017);
         "P. Giannozzi et al., J. Chem. Phys. 152 154105 (2020);
          URL http://www.quantum-espresso.org", 
     in publications or presentations arising from this work. More details at
     http://www.quantum-espresso.org/quote

     Parallel version (MPI & OpenMP), running on      10 processor cores
     Number of MPI processes:                 1
     Threads/MPI process:                    10

     MPI processes distributed on     1 nodes
     0 MiB available memory on the printing compute node when the environment starts

     Reading input from po.scf.edge4.9116848019.angle-0.0872.in

     Current dimensions of program PWSCF are:
     Max number of different atomic species (ntypx) = 10
     Max number of k-points (npk) =  40000
     Max angular momentum in pseudopotentials (lmaxx) =  4
     file Po.pbe-dn-rrkjus_psl.1.0.0.UPF: wavefunction(s)  5D renormalized

     Subspace diagonalization in iterative solution of the eigenvalue problem:
     a serial algorithm will be used


     G-vector sticks info
     --------------------
     sticks:   dense  smooth     PW     G-vecs:    dense   smooth      PW
     Sum         573     573    185                10287    10287    1905

     Using Slab Decomposition



     bravais-lattice index     =            5
     lattice parameter (alat)  =       4.9117  a.u.
     unit-cell volume          =     117.0539 (a.u.)^3
     number of atoms/cell      =            1
     number of atomic types    =            1
     number of electrons       =        16.00
     number of Kohn-Sham states=           12
     kinetic-energy cutoff     =      75.0000  Ry
     charge density cutoff     =     300.0000  Ry
     scf convergence threshold =      1.0E-06
     mixing beta               =       0.7000
     number of iterations used =            8  plain     mixing
     Exchange-correlation= PBE
                           (   1   4   3   4   0   0   0)

     celldm(1)=   4.911685  celldm(2)=   0.000000  celldm(3)=   0.000000
     celldm(4)=  -0.087200  celldm(5)=   0.000000  celldm(6)=   0.000000

     crystal axes: (cart. coord. in units of alat)
               a(1) = (   0.737292  -0.425676   0.524595 )  
               a(2) = (   0.000000   0.851352   0.524595 )  
               a(3) = (  -0.737292  -0.425676   0.524595 )  

     reciprocal axes: (cart. coord. in units 2 pi/alat)
               b(1) = (  0.678157 -0.391534  0.635411 )  
               b(2) = (  0.000000  0.783068  0.635411 )  
               b(3) = ( -0.678157 -0.391534  0.635411 )  


     PseudoPot. # 1 for Po read from file:
     ../../pseudo/Po.pbe-dn-rrkjus_psl.1.0.0.UPF
     MD5 check sum: 93671b84bf7252fd23d3fb506349bc50
     Pseudo is Ultrasoft + core correction, Zval = 16.0
     Generated using &quot;atomic&quot; code by A. Dal Corso  v.6.2.2
     Using radial grid of 1283 points,  6 beta functions with: 
                l(1) =   0
                l(2) =   0
                l(3) =   1
                l(4) =   1
                l(5) =   2
                l(6) =   2
     Q(r) pseudized with 0 coefficients 


     atomic species   valence    mass     pseudopotential
        Po            16.00   209.00000     Po( 1.00)

     12 Sym. Ops., with inversion, found



   Cartesian axes

     site n.     atom                  positions (alat units)
         1           Po  tau(   1) = (   0.0000000   0.0000000   0.0000000  )

     number of k points=   116  Marzari-Vanderbilt smearing, width (Ry)=  0.0600

     Number of k-points >= 100: set verbosity='high' to print them.

     Dense  grid:    10287 G-vectors     FFT dimensions: (  27,  27,  27)

     Estimated max dynamical RAM per process >      64.23 MB

     Check: negative core charge=   -0.000001

     Initial potential from superposition of free atoms

     starting charge      15.9996, renormalised to      16.0000
     Starting wfcs are    9 randomized atomic wfcs +    3 random wfcs

     total cpu time spent up to now is       31.8 secs

     Self-consistent Calculation

     iteration #  1     ecut=    75.00 Ry     beta= 0.70
     Davidson diagonalization with overlap
     ethr =  1.00E-02,  avg # of iterations =  5.2

     Threshold (ethr) on eigenvalues was too large:
     Diagonalizing with lowered threshold

     Davidson diagonalization with overlap
     ethr =  1.60E-05,  avg # of iterations =  5.0

     total cpu time spent up to now is      287.7 secs

     total energy              =    -195.12388952 Ry
     estimated scf accuracy    <       0.00277309 Ry

     iteration #  2     ecut=    75.00 Ry     beta= 0.70
     Davidson diagonalization with overlap
     ethr =  1.73E-05,  avg # of iterations =  1.4

     total cpu time spent up to now is      390.9 secs

     total energy              =    -195.12405654 Ry
     estimated scf accuracy    <       0.00015037 Ry

     iteration #  3     ecut=    75.00 Ry     beta= 0.70
     Davidson diagonalization with overlap
     ethr =  9.40E-07,  avg # of iterations =  2.1

     total cpu time spent up to now is      491.9 secs

     total energy              =    -195.12407266 Ry
     estimated scf accuracy    <       0.00000731 Ry

     iteration #  4     ecut=    75.00 Ry     beta= 0.70
     Davidson diagonalization with overlap
     ethr =  4.57E-08,  avg # of iterations =  2.4

     total cpu time spent up to now is      596.6 secs

     End of self-consistent calculation

     Number of k-points >= 100: set verbosity='high' to print the bands.

     the Fermi energy is    27.1592 ev

!    total energy              =    -195.12407432 Ry
     estimated scf accuracy    <       0.00000006 Ry
     smearing contrib. (-TS)   =      -0.00277449 Ry
     internal energy E=F+TS    =    -195.12129983 Ry

     The total energy is F=E-TS. E is the sum of the following terms:
     one-electron contribution =     -20.28445072 Ry
     hartree contribution      =      26.87886152 Ry
     xc contribution           =     -53.01705875 Ry
     ewald contribution        =    -148.69865188 Ry

     convergence has been achieved in   4 iterations

     Writing all to output data dir ../../tmp/po.save/

     init_run     :    131.14s CPU     31.63s WALL (       1 calls)
     electrons    :   1971.70s CPU    564.81s WALL (       1 calls)

     Called by init_run:
     wfcinit      :    128.53s CPU     30.56s WALL (       1 calls)
     potinit      :      0.05s CPU      0.01s WALL (       1 calls)
     hinit0       :      2.47s CPU      1.04s WALL (       1 calls)

     Called by electrons:
     c_bands      :   1664.60s CPU    485.77s WALL (       5 calls)
     sum_band     :    306.70s CPU     78.95s WALL (       5 calls)
     v_of_rho     :      0.18s CPU      0.04s WALL (       5 calls)
     newd         :      0.25s CPU      0.06s WALL (       5 calls)
     mix_rho      :      0.02s CPU      0.01s WALL (       5 calls)

     Called by c_bands:
     init_us_2    :      1.29s CPU      0.34s WALL (    1276 calls)
     init_us_2:cp :      1.28s CPU      0.34s WALL (    1276 calls)
     cegterg      :   1662.83s CPU    485.29s WALL (     580 calls)

     Called by *egterg:
     cdiaghg      :      1.06s CPU      0.30s WALL (    2343 calls)
     h_psi        :   1782.17s CPU    512.85s WALL (    2575 calls)
     s_psi        :      0.73s CPU      0.23s WALL (    2575 calls)
     g_psi        :      0.65s CPU      0.23s WALL (    1879 calls)

     Called by h_psi:
     h_psi:calbec :      2.26s CPU      0.59s WALL (    2575 calls)
     vloc_psi     :   1778.32s CPU    511.73s WALL (    2575 calls)
     add_vuspsi   :      0.81s CPU      0.28s WALL (    2575 calls)

     General routines
     calbec       :      2.99s CPU      0.77s WALL (    3155 calls)
     fft          :      2.31s CPU      0.82s WALL (      56 calls)
     ffts         :      0.01s CPU      0.00s WALL (       5 calls)
     fftw         :   2055.72s CPU    582.64s WALL (   46792 calls)

     Parallel routines

     PWSCF        :  35m 4.53s CPU   9m57.26s WALL


   This run was terminated on:  19:35:34  13Mar2022            

=------------------------------------------------------------------------------=
   JOB DONE.
=------------------------------------------------------------------------------=
