
     Program PWSCF v.7.0 starts on 12Mar2022 at 22:57:56 

     This program is part of the open-source Quantum ESPRESSO suite
     for quantum simulation of materials; please cite
         "P. Giannozzi et al., J. Phys.:Condens. Matter 21 395502 (2009);
         "P. Giannozzi et al., J. Phys.:Condens. Matter 29 465901 (2017);
         "P. Giannozzi et al., J. Chem. Phys. 152 154105 (2020);
          URL http://www.quantum-espresso.org", 
     in publications or presentations arising from this work. More details at
     http://www.quantum-espresso.org/quote

     Parallel version (MPI & OpenMP), running on      10 processor cores
     Number of MPI processes:                 1
     Threads/MPI process:                    10

     MPI processes distributed on     1 nodes
     0 MiB available memory on the printing compute node when the environment starts

     Reading input from po.scf.edge4.9116848019.angle-0.0000.in

     Current dimensions of program PWSCF are:
     Max number of different atomic species (ntypx) = 10
     Max number of k-points (npk) =  40000
     Max angular momentum in pseudopotentials (lmaxx) =  4
     file Po.pbe-dn-rrkjus_psl.1.0.0.UPF: wavefunction(s)  5D renormalized

     Subspace diagonalization in iterative solution of the eigenvalue problem:
     a serial algorithm will be used


     G-vector sticks info
     --------------------
     sticks:   dense  smooth     PW     G-vecs:    dense   smooth      PW
     Sum         577     577    185                10395    10395    1863

     Using Slab Decomposition



     bravais-lattice index     =            5
     lattice parameter (alat)  =       4.9117  a.u.
     unit-cell volume          =     118.4927 (a.u.)^3
     number of atoms/cell      =            1
     number of atomic types    =            1
     number of electrons       =        16.00
     number of Kohn-Sham states=           12
     kinetic-energy cutoff     =      75.0000  Ry
     charge density cutoff     =     300.0000  Ry
     scf convergence threshold =      1.0E-06
     mixing beta               =       0.7000
     number of iterations used =            8  plain     mixing
     Exchange-correlation= PBE
                           (   1   4   3   4   0   0   0)

     celldm(1)=   4.911685  celldm(2)=   0.000000  celldm(3)=   0.000000
     celldm(4)=  -0.000000  celldm(5)=   0.000000  celldm(6)=   0.000000

     crystal axes: (cart. coord. in units of alat)
               a(1) = (   0.707107  -0.408248   0.577350 )  
               a(2) = (   0.000000   0.816497   0.577350 )  
               a(3) = (  -0.707107  -0.408248   0.577350 )  

     reciprocal axes: (cart. coord. in units 2 pi/alat)
               b(1) = (  0.707107 -0.408248  0.577350 )  
               b(2) = (  0.000000  0.816497  0.577350 )  
               b(3) = ( -0.707107 -0.408248  0.577350 )  


     PseudoPot. # 1 for Po read from file:
     ../pseudo/Po.pbe-dn-rrkjus_psl.1.0.0.UPF
     MD5 check sum: 93671b84bf7252fd23d3fb506349bc50
     Pseudo is Ultrasoft + core correction, Zval = 16.0
     Generated using &quot;atomic&quot; code by A. Dal Corso  v.6.2.2
     Using radial grid of 1283 points,  6 beta functions with: 
                l(1) =   0
                l(2) =   0
                l(3) =   1
                l(4) =   1
                l(5) =   2
                l(6) =   2
     Q(r) pseudized with 0 coefficients 


     atomic species   valence    mass     pseudopotential
        Po            16.00   209.00000     Po( 1.00)

     12 Sym. Ops., with inversion, found



   Cartesian axes

     site n.     atom                  positions (alat units)
         1           Po  tau(   1) = (   0.0000000   0.0000000   0.0000000  )

     number of k points=   116  Marzari-Vanderbilt smearing, width (Ry)=  0.0600

     Number of k-points >= 100: set verbosity='high' to print them.

     Dense  grid:    10395 G-vectors     FFT dimensions: (  27,  27,  27)

     Estimated max dynamical RAM per process >      64.93 MB

     Initial potential from superposition of free atoms

     starting charge      15.9996, renormalised to      16.0000
     Starting wfcs are    9 randomized atomic wfcs +    3 random wfcs

     total cpu time spent up to now is       33.8 secs

     Self-consistent Calculation

     iteration #  1     ecut=    75.00 Ry     beta= 0.70
     Davidson diagonalization with overlap
     ethr =  1.00E-02,  avg # of iterations =  5.3

     Threshold (ethr) on eigenvalues was too large:
     Diagonalizing with lowered threshold

     Davidson diagonalization with overlap
     ethr =  1.57E-05,  avg # of iterations =  4.8

     total cpu time spent up to now is      282.2 secs

     total energy              =    -195.12794852 Ry
     estimated scf accuracy    <       0.00272188 Ry

     iteration #  2     ecut=    75.00 Ry     beta= 0.70
     Davidson diagonalization with overlap
     ethr =  1.70E-05,  avg # of iterations =  1.4

     total cpu time spent up to now is      392.5 secs

     total energy              =    -195.12812170 Ry
     estimated scf accuracy    <       0.00014318 Ry

     iteration #  3     ecut=    75.00 Ry     beta= 0.70
     Davidson diagonalization with overlap
     ethr =  8.95E-07,  avg # of iterations =  2.2

     total cpu time spent up to now is      527.0 secs

     total energy              =    -195.12813833 Ry
     estimated scf accuracy    <       0.00000717 Ry

     iteration #  4     ecut=    75.00 Ry     beta= 0.70
     Davidson diagonalization with overlap
     ethr =  4.48E-08,  avg # of iterations =  2.4

     total cpu time spent up to now is      683.3 secs

     End of self-consistent calculation

     Number of k-points >= 100: set verbosity='high' to print the bands.

     the Fermi energy is    26.7934 ev

!    total energy              =    -195.12813984 Ry
     estimated scf accuracy    <       0.00000005 Ry
     smearing contrib. (-TS)   =      -0.00250509 Ry
     internal energy E=F+TS    =    -195.12563475 Ry

     The total energy is F=E-TS. E is the sum of the following terms:
     one-electron contribution =     -21.53738628 Ry
     hartree contribution      =      27.29919338 Ry
     xc contribution           =     -53.00577109 Ry
     ewald contribution        =    -147.88167076 Ry

     convergence has been achieved in   4 iterations

     Writing all to output data dir ../tmp/po.save/

     init_run     :    133.70s CPU     33.67s WALL (       1 calls)
     electrons    :   2212.98s CPU    649.50s WALL (       1 calls)

     Called by init_run:
     wfcinit      :    130.64s CPU     32.43s WALL (       1 calls)
     potinit      :      0.05s CPU      0.01s WALL (       1 calls)
     hinit0       :      2.94s CPU      1.20s WALL (       1 calls)

     Called by electrons:
     c_bands      :   1904.64s CPU    576.39s WALL (       5 calls)
     sum_band     :    307.94s CPU     73.01s WALL (       5 calls)
     v_of_rho     :      0.18s CPU      0.04s WALL (       5 calls)
     newd         :      0.22s CPU      0.06s WALL (       5 calls)
     mix_rho      :      0.01s CPU      0.00s WALL (       5 calls)

     Called by c_bands:
     init_us_2    :      1.28s CPU      0.34s WALL (    1276 calls)
     init_us_2:cp :      1.27s CPU      0.33s WALL (    1276 calls)
     cegterg      :   1902.71s CPU    575.82s WALL (     580 calls)

     Called by *egterg:
     cdiaghg      :      1.00s CPU      0.29s WALL (    2325 calls)
     h_psi        :   2024.17s CPU    605.08s WALL (    2557 calls)
     s_psi        :      0.72s CPU      0.24s WALL (    2557 calls)
     g_psi        :      0.66s CPU      0.25s WALL (    1861 calls)

     Called by h_psi:
     h_psi:calbec :      2.24s CPU      0.59s WALL (    2557 calls)
     vloc_psi     :   2020.29s CPU    603.91s WALL (    2557 calls)
     add_vuspsi   :      0.80s CPU      0.29s WALL (    2557 calls)

     General routines
     calbec       :      2.98s CPU      0.76s WALL (    3137 calls)
     fft          :      2.80s CPU      0.99s WALL (      56 calls)
     ffts         :      0.01s CPU      0.00s WALL (       5 calls)
     fftw         :   2296.06s CPU    667.97s WALL (   46640 calls)

     Parallel routines

     PWSCF        :  39m 7.81s CPU  11m23.65s WALL


   This run was terminated on:  23: 9:20  12Mar2022            

=------------------------------------------------------------------------------=
   JOB DONE.
=------------------------------------------------------------------------------=
