
     Program PWSCF v.7.0 starts on 13Mar2022 at 11:23:13 

     This program is part of the open-source Quantum ESPRESSO suite
     for quantum simulation of materials; please cite
         "P. Giannozzi et al., J. Phys.:Condens. Matter 21 395502 (2009);
         "P. Giannozzi et al., J. Phys.:Condens. Matter 29 465901 (2017);
         "P. Giannozzi et al., J. Chem. Phys. 152 154105 (2020);
          URL http://www.quantum-espresso.org", 
     in publications or presentations arising from this work. More details at
     http://www.quantum-espresso.org/quote

     Parallel version (MPI & OpenMP), running on      10 processor cores
     Number of MPI processes:                 1
     Threads/MPI process:                    10

     MPI processes distributed on     1 nodes
     0 MiB available memory on the printing compute node when the environment starts

     Reading input from po.scf.edge6.3116848019.angle-0.0000.in

     Current dimensions of program PWSCF are:
     Max number of different atomic species (ntypx) = 10
     Max number of k-points (npk) =  40000
     Max angular momentum in pseudopotentials (lmaxx) =  4
     file Po.pbe-dn-rrkjus_psl.1.0.0.UPF: wavefunction(s)  5D renormalized

     Subspace diagonalization in iterative solution of the eigenvalue problem:
     a serial algorithm will be used


     G-vector sticks info
     --------------------
     sticks:   dense  smooth     PW     G-vecs:    dense   smooth      PW
     Sum         949     949    293                22119    22119    3743

     Using Slab Decomposition



     bravais-lattice index     =            5
     lattice parameter (alat)  =       6.3117  a.u.
     unit-cell volume          =     251.4409 (a.u.)^3
     number of atoms/cell      =            1
     number of atomic types    =            1
     number of electrons       =        16.00
     number of Kohn-Sham states=           12
     kinetic-energy cutoff     =      75.0000  Ry
     charge density cutoff     =     300.0000  Ry
     scf convergence threshold =      1.0E-06
     mixing beta               =       0.7000
     number of iterations used =            8  plain     mixing
     Exchange-correlation= PBE
                           (   1   4   3   4   0   0   0)

     celldm(1)=   6.311685  celldm(2)=   0.000000  celldm(3)=   0.000000
     celldm(4)=  -0.000000  celldm(5)=   0.000000  celldm(6)=   0.000000

     crystal axes: (cart. coord. in units of alat)
               a(1) = (   0.707107  -0.408248   0.577350 )  
               a(2) = (   0.000000   0.816497   0.577350 )  
               a(3) = (  -0.707107  -0.408248   0.577350 )  

     reciprocal axes: (cart. coord. in units 2 pi/alat)
               b(1) = (  0.707107 -0.408248  0.577350 )  
               b(2) = (  0.000000  0.816497  0.577350 )  
               b(3) = ( -0.707107 -0.408248  0.577350 )  


     PseudoPot. # 1 for Po read from file:
     ../pseudo/Po.pbe-dn-rrkjus_psl.1.0.0.UPF
     MD5 check sum: 93671b84bf7252fd23d3fb506349bc50
     Pseudo is Ultrasoft + core correction, Zval = 16.0
     Generated using &quot;atomic&quot; code by A. Dal Corso  v.6.2.2
     Using radial grid of 1283 points,  6 beta functions with: 
                l(1) =   0
                l(2) =   0
                l(3) =   1
                l(4) =   1
                l(5) =   2
                l(6) =   2
     Q(r) pseudized with 0 coefficients 


     atomic species   valence    mass     pseudopotential
        Po            16.00   209.00000     Po( 1.00)

     12 Sym. Ops., with inversion, found



   Cartesian axes

     site n.     atom                  positions (alat units)
         1           Po  tau(   1) = (   0.0000000   0.0000000   0.0000000  )

     number of k points=   116  Marzari-Vanderbilt smearing, width (Ry)=  0.0600

     Number of k-points >= 100: set verbosity='high' to print them.

     Dense  grid:    22119 G-vectors     FFT dimensions: (  36,  36,  36)

     Estimated max dynamical RAM per process >     136.75 MB

     Check: negative core charge=   -0.000002

     Initial potential from superposition of free atoms

     starting charge      15.9996, renormalised to      16.0000
     Starting wfcs are    9 randomized atomic wfcs +    3 random wfcs

     total cpu time spent up to now is       50.7 secs

     Self-consistent Calculation

     iteration #  1     ecut=    75.00 Ry     beta= 0.70
     Davidson diagonalization with overlap
     ethr =  1.00E-02,  avg # of iterations =  4.6

     Threshold (ethr) on eigenvalues was too large:
     Diagonalizing with lowered threshold

     Davidson diagonalization with overlap
     c_bands:  1 eigenvalues not converged
     ethr =  8.40E-06,  avg # of iterations =  6.7

     total cpu time spent up to now is      547.5 secs

     total energy              =    -195.58666616 Ry
     estimated scf accuracy    <       0.00140090 Ry

     iteration #  2     ecut=    75.00 Ry     beta= 0.70
     Davidson diagonalization with overlap
     ethr =  8.76E-06,  avg # of iterations =  1.8

     total cpu time spent up to now is      745.4 secs

     total energy              =    -195.58681614 Ry
     estimated scf accuracy    <       0.00013172 Ry

     iteration #  3     ecut=    75.00 Ry     beta= 0.70
     Davidson diagonalization with overlap
     ethr =  8.23E-07,  avg # of iterations =  2.3

     total cpu time spent up to now is      894.8 secs

     total energy              =    -195.58683030 Ry
     estimated scf accuracy    <       0.00000748 Ry

     iteration #  4     ecut=    75.00 Ry     beta= 0.70
     Davidson diagonalization with overlap
     ethr =  4.68E-08,  avg # of iterations =  2.0

     total cpu time spent up to now is     1038.9 secs

     End of self-consistent calculation

     Number of k-points >= 100: set verbosity='high' to print the bands.

     the Fermi energy is     9.6137 ev

!    total energy              =    -195.58683135 Ry
     estimated scf accuracy    <       0.00000007 Ry
     smearing contrib. (-TS)   =       0.00061940 Ry
     internal energy E=F+TS    =    -195.58745075 Ry

     The total energy is F=E-TS. E is the sum of the following terms:
     one-electron contribution =     -71.76607072 Ry
     hartree contribution      =      43.52604283 Ry
     xc contribution           =     -52.26750719 Ry
     ewald contribution        =    -115.07991567 Ry

     convergence has been achieved in   4 iterations

     Writing all to output data dir ../tmp/po.save/

     init_run     :    197.91s CPU     50.60s WALL (       1 calls)
     electrons    :   3518.04s CPU    988.16s WALL (       1 calls)

     Called by init_run:
     wfcinit      :    194.44s CPU     49.25s WALL (       1 calls)
     potinit      :      0.08s CPU      0.01s WALL (       1 calls)
     hinit0       :      3.25s CPU      1.27s WALL (       1 calls)

     Called by electrons:
     c_bands      :   2903.91s CPU    835.66s WALL (       5 calls)
     sum_band     :    613.57s CPU    152.36s WALL (       5 calls)
     v_of_rho     :      0.34s CPU      0.08s WALL (       5 calls)
     newd         :      0.36s CPU      0.10s WALL (       5 calls)
     mix_rho      :      0.02s CPU      0.01s WALL (       5 calls)

     Called by c_bands:
     init_us_2    :      2.50s CPU      0.65s WALL (    1276 calls)
     init_us_2:cp :      2.49s CPU      0.65s WALL (    1276 calls)
     cegterg      :   2899.89s CPU    834.52s WALL (     580 calls)

     Called by *egterg:
     cdiaghg      :      1.04s CPU      0.31s WALL (    2484 calls)
     h_psi        :   3080.71s CPU    879.32s WALL (    2716 calls)
     s_psi        :      1.15s CPU      0.35s WALL (    2716 calls)
     g_psi        :      0.87s CPU      0.33s WALL (    2020 calls)

     Called by h_psi:
     h_psi:calbec :      4.42s CPU      1.14s WALL (    2716 calls)
     vloc_psi     :   3074.05s CPU    877.46s WALL (    2716 calls)
     add_vuspsi   :      1.25s CPU      0.38s WALL (    2716 calls)

     General routines
     calbec       :      5.85s CPU      1.47s WALL (    3296 calls)
     fft          :      3.17s CPU      1.08s WALL (      56 calls)
     ffts         :      0.02s CPU      0.01s WALL (       5 calls)
     fftw         :   3647.77s CPU   1019.21s WALL (   45732 calls)

     Parallel routines

     PWSCF        :      1h 1m CPU  17m19.61s WALL


   This run was terminated on:  11:40:33  13Mar2022            

=------------------------------------------------------------------------------=
   JOB DONE.
=------------------------------------------------------------------------------=
