
     Program PWSCF v.7.0 starts on 12Mar2022 at 21:59:46 

     This program is part of the open-source Quantum ESPRESSO suite
     for quantum simulation of materials; please cite
         "P. Giannozzi et al., J. Phys.:Condens. Matter 21 395502 (2009);
         "P. Giannozzi et al., J. Phys.:Condens. Matter 29 465901 (2017);
         "P. Giannozzi et al., J. Chem. Phys. 152 154105 (2020);
          URL http://www.quantum-espresso.org", 
     in publications or presentations arising from this work. More details at
     http://www.quantum-espresso.org/quote

     Parallel version (MPI & OpenMP), running on      10 processor cores
     Number of MPI processes:                 1
     Threads/MPI process:                    10

     MPI processes distributed on     1 nodes
     0 MiB available memory on the printing compute node when the environment starts

     Reading input from po.scf.edge4.2116848019.angle0.0872.in

     Current dimensions of program PWSCF are:
     Max number of different atomic species (ntypx) = 10
     Max number of k-points (npk) =  40000
     Max angular momentum in pseudopotentials (lmaxx) =  4
     file Po.pbe-dn-rrkjus_psl.1.0.0.UPF: wavefunction(s)  5D renormalized

     Subspace diagonalization in iterative solution of the eigenvalue problem:
     a serial algorithm will be used


     G-vector sticks info
     --------------------
     sticks:   dense  smooth     PW     G-vecs:    dense   smooth      PW
     Sum         419     419    137                 6465     6465    1203

     Using Slab Decomposition



     bravais-lattice index     =            5
     lattice parameter (alat)  =       4.2117  a.u.
     unit-cell volume          =      73.9012 (a.u.)^3
     number of atoms/cell      =            1
     number of atomic types    =            1
     number of electrons       =        16.00
     number of Kohn-Sham states=           12
     kinetic-energy cutoff     =      75.0000  Ry
     charge density cutoff     =     300.0000  Ry
     scf convergence threshold =      1.0E-06
     mixing beta               =       0.7000
     number of iterations used =            8  plain     mixing
     Exchange-correlation= PBE
                           (   1   4   3   4   0   0   0)

     celldm(1)=   4.211685  celldm(2)=   0.000000  celldm(3)=   0.000000
     celldm(4)=   0.087200  celldm(5)=   0.000000  celldm(6)=   0.000000

     crystal axes: (cart. coord. in units of alat)
               a(1) = (   0.675574  -0.390043   0.625673 )  
               a(2) = (   0.000000   0.780085   0.625673 )  
               a(3) = (  -0.675574  -0.390043   0.625673 )  

     reciprocal axes: (cart. coord. in units 2 pi/alat)
               b(1) = (  0.740112 -0.427304  0.532760 )  
               b(2) = (  0.000000  0.854607  0.532760 )  
               b(3) = ( -0.740112 -0.427304  0.532760 )  


     PseudoPot. # 1 for Po read from file:
     ../pseudo/Po.pbe-dn-rrkjus_psl.1.0.0.UPF
     MD5 check sum: 93671b84bf7252fd23d3fb506349bc50
     Pseudo is Ultrasoft + core correction, Zval = 16.0
     Generated using &quot;atomic&quot; code by A. Dal Corso  v.6.2.2
     Using radial grid of 1283 points,  6 beta functions with: 
                l(1) =   0
                l(2) =   0
                l(3) =   1
                l(4) =   1
                l(5) =   2
                l(6) =   2
     Q(r) pseudized with 0 coefficients 


     atomic species   valence    mass     pseudopotential
        Po            16.00   209.00000     Po( 1.00)

     12 Sym. Ops., with inversion, found



   Cartesian axes

     site n.     atom                  positions (alat units)
         1           Po  tau(   1) = (   0.0000000   0.0000000   0.0000000  )

     number of k points=   116  Marzari-Vanderbilt smearing, width (Ry)=  0.0600

     Number of k-points >= 100: set verbosity='high' to print them.

     Dense  grid:     6465 G-vectors     FFT dimensions: (  24,  24,  24)

     Estimated max dynamical RAM per process >      41.07 MB

     Initial potential from superposition of free atoms

     starting charge      15.9996, renormalised to      16.0000
     Starting wfcs are    9 randomized atomic wfcs +    3 random wfcs

     total cpu time spent up to now is       28.1 secs

     Self-consistent Calculation

     iteration #  1     ecut=    75.00 Ry     beta= 0.70
     Davidson diagonalization with overlap
     ethr =  1.00E-02,  avg # of iterations =  6.3

     Threshold (ethr) on eigenvalues was too large:
     Diagonalizing with lowered threshold

     Davidson diagonalization with overlap
     ethr =  5.27E-05,  avg # of iterations =  4.1

     total cpu time spent up to now is      248.6 secs

     total energy              =    -193.82549389 Ry
     estimated scf accuracy    <       0.00875366 Ry

     iteration #  2     ecut=    75.00 Ry     beta= 0.70
     Davidson diagonalization with overlap
     ethr =  5.47E-05,  avg # of iterations =  1.4

     total cpu time spent up to now is      323.7 secs

     total energy              =    -193.82570450 Ry
     estimated scf accuracy    <       0.00041154 Ry

     iteration #  3     ecut=    75.00 Ry     beta= 0.70
     Davidson diagonalization with overlap
     ethr =  2.57E-06,  avg # of iterations =  3.0

     total cpu time spent up to now is      412.6 secs

     total energy              =    -193.82576086 Ry
     estimated scf accuracy    <       0.00000418 Ry

     iteration #  4     ecut=    75.00 Ry     beta= 0.70
     Davidson diagonalization with overlap
     ethr =  2.61E-08,  avg # of iterations =  3.5

     total cpu time spent up to now is      505.6 secs

     End of self-consistent calculation

     Number of k-points >= 100: set verbosity='high' to print the bands.

     the Fermi energy is    44.4084 ev

!    total energy              =    -193.82576284 Ry
     estimated scf accuracy    <       0.00000013 Ry
     smearing contrib. (-TS)   =       0.00154290 Ry
     internal energy E=F+TS    =    -193.82730574 Ry

     The total energy is F=E-TS. E is the sum of the following terms:
     one-electron contribution =      15.47300041 Ry
     hartree contribution      =      17.92542944 Ry
     xc contribution           =     -53.93135165 Ry
     ewald contribution        =    -173.29438394 Ry

     convergence has been achieved in   4 iterations

     Writing all to output data dir ../tmp/po.save/

     init_run     :     99.91s CPU     27.94s WALL (       1 calls)
     electrons    :   1532.22s CPU    477.55s WALL (       1 calls)

     Called by init_run:
     wfcinit      :     97.59s CPU     27.02s WALL (       1 calls)
     potinit      :      0.04s CPU      0.01s WALL (       1 calls)
     hinit0       :      2.22s CPU      0.89s WALL (       1 calls)

     Called by electrons:
     c_bands      :   1292.31s CPU    402.51s WALL (       5 calls)
     sum_band     :    239.64s CPU     74.97s WALL (       5 calls)
     v_of_rho     :      0.12s CPU      0.03s WALL (       5 calls)
     newd         :      0.14s CPU      0.03s WALL (       5 calls)
     mix_rho      :      0.01s CPU      0.00s WALL (       5 calls)

     Called by c_bands:
     init_us_2    :      0.79s CPU      0.23s WALL (    1276 calls)
     init_us_2:cp :      0.78s CPU      0.23s WALL (    1276 calls)
     cegterg      :   1291.26s CPU    402.19s WALL (     580 calls)

     Called by *egterg:
     cdiaghg      :      1.19s CPU      0.35s WALL (    2585 calls)
     h_psi        :   1380.60s CPU    426.35s WALL (    2817 calls)
     s_psi        :      0.58s CPU      0.20s WALL (    2817 calls)
     g_psi        :      0.67s CPU      0.25s WALL (    2121 calls)

     Called by h_psi:
     h_psi:calbec :      1.51s CPU      0.43s WALL (    2817 calls)
     vloc_psi     :   1377.62s CPU    425.40s WALL (    2817 calls)
     add_vuspsi   :      0.64s CPU      0.26s WALL (    2817 calls)

     General routines
     calbec       :      1.94s CPU      0.55s WALL (    3397 calls)
     fft          :      2.04s CPU      0.67s WALL (      56 calls)
     ffts         :      0.01s CPU      0.00s WALL (       5 calls)
     fftw         :   1589.03s CPU    491.74s WALL (   47792 calls)

     Parallel routines

     PWSCF        :  27m13.46s CPU   8m26.18s WALL


   This run was terminated on:  22: 8:12  12Mar2022            

=------------------------------------------------------------------------------=
   JOB DONE.
=------------------------------------------------------------------------------=
