
     Program PWSCF v.7.0 starts on 13Mar2022 at 12:34:39 

     This program is part of the open-source Quantum ESPRESSO suite
     for quantum simulation of materials; please cite
         "P. Giannozzi et al., J. Phys.:Condens. Matter 21 395502 (2009);
         "P. Giannozzi et al., J. Phys.:Condens. Matter 29 465901 (2017);
         "P. Giannozzi et al., J. Chem. Phys. 152 154105 (2020);
          URL http://www.quantum-espresso.org", 
     in publications or presentations arising from this work. More details at
     http://www.quantum-espresso.org/quote

     Parallel version (MPI & OpenMP), running on      10 processor cores
     Number of MPI processes:                 1
     Threads/MPI process:                    10

     MPI processes distributed on     1 nodes
     0 MiB available memory on the printing compute node when the environment starts

     Reading input from po.scf.edge4.9116848019.angle0.1736.in

     Current dimensions of program PWSCF are:
     Max number of different atomic species (ntypx) = 10
     Max number of k-points (npk) =  40000
     Max angular momentum in pseudopotentials (lmaxx) =  4
     file Po.pbe-dn-rrkjus_psl.1.0.0.UPF: wavefunction(s)  5D renormalized

     Subspace diagonalization in iterative solution of the eigenvalue problem:
     a serial algorithm will be used


     G-vector sticks info
     --------------------
     sticks:   dense  smooth     PW     G-vecs:    dense   smooth      PW
     Sum         569     569    179                 9991     9991    1793

     Using Slab Decomposition



     bravais-lattice index     =            5
     lattice parameter (alat)  =       4.9117  a.u.
     unit-cell volume          =     113.6574 (a.u.)^3
     number of atoms/cell      =            1
     number of atomic types    =            1
     number of electrons       =        16.00
     number of Kohn-Sham states=           12
     kinetic-energy cutoff     =      75.0000  Ry
     charge density cutoff     =     300.0000  Ry
     scf convergence threshold =      1.0E-06
     mixing beta               =       0.7000
     number of iterations used =            8  plain     mixing
     Exchange-correlation= PBE
                           (   1   4   3   4   0   0   0)

     celldm(1)=   4.911685  celldm(2)=   0.000000  celldm(3)=   0.000000
     celldm(4)=   0.173600  celldm(5)=   0.000000  celldm(6)=   0.000000

     crystal axes: (cart. coord. in units of alat)
               a(1) = (   0.642806  -0.371124   0.670124 )  
               a(2) = (   0.000000   0.742249   0.670124 )  
               a(3) = (  -0.642806  -0.371124   0.670124 )  

     reciprocal axes: (cart. coord. in units 2 pi/alat)
               b(1) = (  0.777839 -0.449086  0.497420 )  
               b(2) = (  0.000000  0.898171  0.497420 )  
               b(3) = ( -0.777839 -0.449086  0.497420 )  


     PseudoPot. # 1 for Po read from file:
     ../pseudo/Po.pbe-dn-rrkjus_psl.1.0.0.UPF
     MD5 check sum: 93671b84bf7252fd23d3fb506349bc50
     Pseudo is Ultrasoft + core correction, Zval = 16.0
     Generated using &quot;atomic&quot; code by A. Dal Corso  v.6.2.2
     Using radial grid of 1283 points,  6 beta functions with: 
                l(1) =   0
                l(2) =   0
                l(3) =   1
                l(4) =   1
                l(5) =   2
                l(6) =   2
     Q(r) pseudized with 0 coefficients 


     atomic species   valence    mass     pseudopotential
        Po            16.00   209.00000     Po( 1.00)

     12 Sym. Ops., with inversion, found



   Cartesian axes

     site n.     atom                  positions (alat units)
         1           Po  tau(   1) = (   0.0000000   0.0000000   0.0000000  )

     number of k points=   116  Marzari-Vanderbilt smearing, width (Ry)=  0.0600

     Number of k-points >= 100: set verbosity='high' to print them.

     Dense  grid:     9991 G-vectors     FFT dimensions: (  27,  27,  27)

     Estimated max dynamical RAM per process >      62.46 MB

     Initial potential from superposition of free atoms

     starting charge      15.9996, renormalised to      16.0000
     Starting wfcs are    9 randomized atomic wfcs +    3 random wfcs

     total cpu time spent up to now is       31.0 secs

     Self-consistent Calculation

     iteration #  1     ecut=    75.00 Ry     beta= 0.70
     Davidson diagonalization with overlap
     ethr =  1.00E-02,  avg # of iterations =  5.5

     Threshold (ethr) on eigenvalues was too large:
     Diagonalizing with lowered threshold

     Davidson diagonalization with overlap
     c_bands:  1 eigenvalues not converged
     ethr =  1.69E-05,  avg # of iterations =  5.9

     total cpu time spent up to now is      291.8 secs

     total energy              =    -195.11039433 Ry
     estimated scf accuracy    <       0.00291388 Ry

     iteration #  2     ecut=    75.00 Ry     beta= 0.70
     Davidson diagonalization with overlap
     ethr =  1.82E-05,  avg # of iterations =  1.3

     total cpu time spent up to now is      374.7 secs

     total energy              =    -195.11054720 Ry
     estimated scf accuracy    <       0.00016304 Ry

     iteration #  3     ecut=    75.00 Ry     beta= 0.70
     Davidson diagonalization with overlap
     ethr =  1.02E-06,  avg # of iterations =  2.2

     total cpu time spent up to now is      455.1 secs

     total energy              =    -195.11056331 Ry
     estimated scf accuracy    <       0.00000704 Ry

     iteration #  4     ecut=    75.00 Ry     beta= 0.70
     Davidson diagonalization with overlap
     ethr =  4.40E-08,  avg # of iterations =  2.5

     total cpu time spent up to now is      547.6 secs

     End of self-consistent calculation

     Number of k-points >= 100: set verbosity='high' to print the bands.

     the Fermi energy is    28.0099 ev

!    total energy              =    -195.11056510 Ry
     estimated scf accuracy    <       0.00000008 Ry
     smearing contrib. (-TS)   =      -0.00258738 Ry
     internal energy E=F+TS    =    -195.10797772 Ry

     The total energy is F=E-TS. E is the sum of the following terms:
     one-electron contribution =     -17.40762556 Ry
     hartree contribution      =      25.94112700 Ry
     xc contribution           =     -53.04660853 Ry
     ewald contribution        =    -150.59487063 Ry

     convergence has been achieved in   4 iterations

     Writing all to output data dir ../tmp/po.save/

     init_run     :    124.91s CPU     30.82s WALL (       1 calls)
     electrons    :   1948.40s CPU    516.70s WALL (       1 calls)

     Called by init_run:
     wfcinit      :    121.44s CPU     29.48s WALL (       1 calls)
     potinit      :      0.05s CPU      0.01s WALL (       1 calls)
     hinit0       :      3.33s CPU      1.30s WALL (       1 calls)

     Called by electrons:
     c_bands      :   1644.26s CPU    447.74s WALL (       5 calls)
     sum_band     :    303.67s CPU     68.84s WALL (       5 calls)
     v_of_rho     :      0.17s CPU      0.03s WALL (       5 calls)
     newd         :      0.24s CPU      0.06s WALL (       5 calls)
     mix_rho      :      0.02s CPU      0.01s WALL (       5 calls)

     Called by c_bands:
     init_us_2    :      1.23s CPU      0.32s WALL (    1276 calls)
     init_us_2:cp :      1.22s CPU      0.32s WALL (    1276 calls)
     cegterg      :   1642.60s CPU    447.28s WALL (     580 calls)

     Called by *egterg:
     cdiaghg      :      1.11s CPU      0.32s WALL (    2484 calls)
     h_psi        :   1754.65s CPU    473.65s WALL (    2716 calls)
     s_psi        :      0.73s CPU      0.24s WALL (    2716 calls)
     g_psi        :      0.68s CPU      0.24s WALL (    2020 calls)

     Called by h_psi:
     h_psi:calbec :      2.25s CPU      0.57s WALL (    2716 calls)
     vloc_psi     :   1750.76s CPU    472.53s WALL (    2716 calls)
     add_vuspsi   :      0.80s CPU      0.28s WALL (    2716 calls)

     General routines
     calbec       :      2.95s CPU      0.73s WALL (    3296 calls)
     fft          :      3.16s CPU      1.08s WALL (      56 calls)
     ffts         :      0.01s CPU      0.00s WALL (       5 calls)
     fftw         :   2024.33s CPU    533.70s WALL (   47148 calls)

     Parallel routines

     PWSCF        :  34m34.86s CPU   9m 8.31s WALL


   This run was terminated on:  12:43:48  13Mar2022            

=------------------------------------------------------------------------------=
   JOB DONE.
=------------------------------------------------------------------------------=
