
     Program PWSCF v.7.0 starts on 12Mar2022 at 22:27:41 

     This program is part of the open-source Quantum ESPRESSO suite
     for quantum simulation of materials; please cite
         "P. Giannozzi et al., J. Phys.:Condens. Matter 21 395502 (2009);
         "P. Giannozzi et al., J. Phys.:Condens. Matter 29 465901 (2017);
         "P. Giannozzi et al., J. Chem. Phys. 152 154105 (2020);
          URL http://www.quantum-espresso.org", 
     in publications or presentations arising from this work. More details at
     http://www.quantum-espresso.org/quote

     Parallel version (MPI & OpenMP), running on      10 processor cores
     Number of MPI processes:                 1
     Threads/MPI process:                    10

     MPI processes distributed on     1 nodes
     0 MiB available memory on the printing compute node when the environment starts

     Reading input from po.scf.edge4.2116848019.angle0.2588.in

     Current dimensions of program PWSCF are:
     Max number of different atomic species (ntypx) = 10
     Max number of k-points (npk) =  40000
     Max angular momentum in pseudopotentials (lmaxx) =  4
     file Po.pbe-dn-rrkjus_psl.1.0.0.UPF: wavefunction(s)  5D renormalized

     Subspace diagonalization in iterative solution of the eigenvalue problem:
     a serial algorithm will be used


     G-vector sticks info
     --------------------
     sticks:   dense  smooth     PW     G-vecs:    dense   smooth      PW
     Sum         413     413    135                 6047     6047    1167

     Using Slab Decomposition



     bravais-lattice index     =            5
     lattice parameter (alat)  =       4.2117  a.u.
     unit-cell volume          =      68.2153 (a.u.)^3
     number of atoms/cell      =            1
     number of atomic types    =            1
     number of electrons       =        16.00
     number of Kohn-Sham states=           12
     kinetic-energy cutoff     =      75.0000  Ry
     charge density cutoff     =     300.0000  Ry
     scf convergence threshold =      1.0E-06
     mixing beta               =       0.7000
     number of iterations used =            8  plain     mixing
     Exchange-correlation= PBE
                           (   1   4   3   4   0   0   0)

     celldm(1)=   4.211685  celldm(2)=   0.000000  celldm(3)=   0.000000
     celldm(4)=   0.258800  celldm(5)=   0.000000  celldm(6)=   0.000000

     crystal axes: (cart. coord. in units of alat)
               a(1) = (   0.608769  -0.351473   0.711243 )  
               a(2) = (   0.000000   0.702946   0.711243 )  
               a(3) = (  -0.608769  -0.351473   0.711243 )  

     reciprocal axes: (cart. coord. in units 2 pi/alat)
               b(1) = (  0.821329 -0.474195  0.468663 )  
               b(2) = (  0.000000  0.948389  0.468663 )  
               b(3) = ( -0.821329 -0.474195  0.468663 )  


     PseudoPot. # 1 for Po read from file:
     ../pseudo/Po.pbe-dn-rrkjus_psl.1.0.0.UPF
     MD5 check sum: 93671b84bf7252fd23d3fb506349bc50
     Pseudo is Ultrasoft + core correction, Zval = 16.0
     Generated using &quot;atomic&quot; code by A. Dal Corso  v.6.2.2
     Using radial grid of 1283 points,  6 beta functions with: 
                l(1) =   0
                l(2) =   0
                l(3) =   1
                l(4) =   1
                l(5) =   2
                l(6) =   2
     Q(r) pseudized with 0 coefficients 


     atomic species   valence    mass     pseudopotential
        Po            16.00   209.00000     Po( 1.00)

     12 Sym. Ops., with inversion, found



   Cartesian axes

     site n.     atom                  positions (alat units)
         1           Po  tau(   1) = (   0.0000000   0.0000000   0.0000000  )

     number of k points=   116  Marzari-Vanderbilt smearing, width (Ry)=  0.0600

     Number of k-points >= 100: set verbosity='high' to print them.

     Dense  grid:     6047 G-vectors     FFT dimensions: (  24,  24,  24)

     Estimated max dynamical RAM per process >      38.34 MB

     Initial potential from superposition of free atoms

     starting charge      15.9996, renormalised to      16.0000
     Starting wfcs are    9 randomized atomic wfcs +    3 random wfcs

     total cpu time spent up to now is       29.5 secs

     Self-consistent Calculation

     iteration #  1     ecut=    75.00 Ry     beta= 0.70
     Davidson diagonalization with overlap
     ethr =  1.00E-02,  avg # of iterations =  6.1

     Threshold (ethr) on eigenvalues was too large:
     Diagonalizing with lowered threshold

     Davidson diagonalization with overlap
     ethr =  4.86E-05,  avg # of iterations =  4.3

     total cpu time spent up to now is      262.6 secs

     total energy              =    -193.63908732 Ry
     estimated scf accuracy    <       0.00808909 Ry

     iteration #  2     ecut=    75.00 Ry     beta= 0.70
     Davidson diagonalization with overlap
     ethr =  5.06E-05,  avg # of iterations =  1.4

     total cpu time spent up to now is      342.0 secs

     total energy              =    -193.63920165 Ry
     estimated scf accuracy    <       0.00041493 Ry

     iteration #  3     ecut=    75.00 Ry     beta= 0.70
     Davidson diagonalization with overlap
     ethr =  2.59E-06,  avg # of iterations =  2.8

     total cpu time spent up to now is      433.7 secs

     total energy              =    -193.63925777 Ry
     estimated scf accuracy    <       0.00000256 Ry

     iteration #  4     ecut=    75.00 Ry     beta= 0.70
     Davidson diagonalization with overlap
     ethr =  1.60E-08,  avg # of iterations =  3.8

     total cpu time spent up to now is      523.7 secs

     End of self-consistent calculation

     Number of k-points >= 100: set verbosity='high' to print the bands.

     the Fermi energy is    48.0456 ev

!    total energy              =    -193.63925964 Ry
     estimated scf accuracy    <       0.00000018 Ry
     smearing contrib. (-TS)   =      -0.00102997 Ry
     internal energy E=F+TS    =    -193.63822967 Ry

     The total energy is F=E-TS. E is the sum of the following terms:
     one-electron contribution =      23.92971538 Ry
     hartree contribution      =      15.80647285 Ry
     xc contribution           =     -54.09856244 Ry
     ewald contribution        =    -179.27585546 Ry

     convergence has been achieved in   4 iterations

     Writing all to output data dir ../tmp/po.save/

     init_run     :     98.02s CPU     29.37s WALL (       1 calls)
     electrons    :   1536.89s CPU    494.22s WALL (       1 calls)

     Called by init_run:
     wfcinit      :     95.69s CPU     28.46s WALL (       1 calls)
     potinit      :      0.05s CPU      0.01s WALL (       1 calls)
     hinit0       :      2.23s CPU      0.88s WALL (       1 calls)

     Called by electrons:
     c_bands      :   1301.97s CPU    421.70s WALL (       5 calls)
     sum_band     :    234.64s CPU     72.45s WALL (       5 calls)
     v_of_rho     :      0.13s CPU      0.03s WALL (       5 calls)
     newd         :      0.14s CPU      0.04s WALL (       5 calls)
     mix_rho      :      0.02s CPU      0.00s WALL (       5 calls)

     Called by c_bands:
     init_us_2    :      0.73s CPU      0.22s WALL (    1276 calls)
     init_us_2:cp :      0.72s CPU      0.21s WALL (    1276 calls)
     cegterg      :   1300.99s CPU    421.40s WALL (     580 calls)

     Called by *egterg:
     cdiaghg      :      1.19s CPU      0.35s WALL (    2601 calls)
     h_psi        :   1388.56s CPU    447.01s WALL (    2833 calls)
     s_psi        :      0.56s CPU      0.20s WALL (    2833 calls)
     g_psi        :      0.67s CPU      0.25s WALL (    2137 calls)

     Called by h_psi:
     h_psi:calbec :      1.38s CPU      0.41s WALL (    2833 calls)
     vloc_psi     :   1385.72s CPU    446.08s WALL (    2833 calls)
     add_vuspsi   :      0.62s CPU      0.26s WALL (    2833 calls)

     General routines
     calbec       :      1.77s CPU      0.52s WALL (    3413 calls)
     fft          :      2.06s CPU      0.67s WALL (      56 calls)
     ffts         :      0.01s CPU      0.00s WALL (       5 calls)
     fftw         :   1591.82s CPU    509.59s WALL (   47966 calls)

     Parallel routines

     PWSCF        :  27m16.02s CPU   8m44.26s WALL


   This run was terminated on:  22:36:25  12Mar2022            

=------------------------------------------------------------------------------=
   JOB DONE.
=------------------------------------------------------------------------------=
