
     Program PWSCF v.7.0 starts on 13Mar2022 at 11:46:45 

     This program is part of the open-source Quantum ESPRESSO suite
     for quantum simulation of materials; please cite
         "P. Giannozzi et al., J. Phys.:Condens. Matter 21 395502 (2009);
         "P. Giannozzi et al., J. Phys.:Condens. Matter 29 465901 (2017);
         "P. Giannozzi et al., J. Chem. Phys. 152 154105 (2020);
          URL http://www.quantum-espresso.org", 
     in publications or presentations arising from this work. More details at
     http://www.quantum-espresso.org/quote

     Parallel version (MPI & OpenMP), running on      10 processor cores
     Number of MPI processes:                 1
     Threads/MPI process:                    10

     MPI processes distributed on     1 nodes
     0 MiB available memory on the printing compute node when the environment starts

     Reading input from po.scf.edge5.6116848019.angle0.2588.in

     Current dimensions of program PWSCF are:
     Max number of different atomic species (ntypx) = 10
     Max number of k-points (npk) =  40000
     Max angular momentum in pseudopotentials (lmaxx) =  4
     file Po.pbe-dn-rrkjus_psl.1.0.0.UPF: wavefunction(s)  5D renormalized

     Subspace diagonalization in iterative solution of the eigenvalue problem:
     a serial algorithm will be used


     G-vector sticks info
     --------------------
     sticks:   dense  smooth     PW     G-vecs:    dense   smooth      PW
     Sum         723     723    231                14177    14177    2479

     Using Slab Decomposition



     bravais-lattice index     =            5
     lattice parameter (alat)  =       5.6117  a.u.
     unit-cell volume          =     161.3593 (a.u.)^3
     number of atoms/cell      =            1
     number of atomic types    =            1
     number of electrons       =        16.00
     number of Kohn-Sham states=           12
     kinetic-energy cutoff     =      75.0000  Ry
     charge density cutoff     =     300.0000  Ry
     scf convergence threshold =      1.0E-06
     mixing beta               =       0.7000
     number of iterations used =            8  plain     mixing
     Exchange-correlation= PBE
                           (   1   4   3   4   0   0   0)

     celldm(1)=   5.611685  celldm(2)=   0.000000  celldm(3)=   0.000000
     celldm(4)=   0.258800  celldm(5)=   0.000000  celldm(6)=   0.000000

     crystal axes: (cart. coord. in units of alat)
               a(1) = (   0.608769  -0.351473   0.711243 )  
               a(2) = (   0.000000   0.702946   0.711243 )  
               a(3) = (  -0.608769  -0.351473   0.711243 )  

     reciprocal axes: (cart. coord. in units 2 pi/alat)
               b(1) = (  0.821329 -0.474195  0.468663 )  
               b(2) = (  0.000000  0.948389  0.468663 )  
               b(3) = ( -0.821329 -0.474195  0.468663 )  


     PseudoPot. # 1 for Po read from file:
     ../pseudo/Po.pbe-dn-rrkjus_psl.1.0.0.UPF
     MD5 check sum: 93671b84bf7252fd23d3fb506349bc50
     Pseudo is Ultrasoft + core correction, Zval = 16.0
     Generated using &quot;atomic&quot; code by A. Dal Corso  v.6.2.2
     Using radial grid of 1283 points,  6 beta functions with: 
                l(1) =   0
                l(2) =   0
                l(3) =   1
                l(4) =   1
                l(5) =   2
                l(6) =   2
     Q(r) pseudized with 0 coefficients 


     atomic species   valence    mass     pseudopotential
        Po            16.00   209.00000     Po( 1.00)

     12 Sym. Ops., with inversion, found



   Cartesian axes

     site n.     atom                  positions (alat units)
         1           Po  tau(   1) = (   0.0000000   0.0000000   0.0000000  )

     number of k points=   116  Marzari-Vanderbilt smearing, width (Ry)=  0.0600

     Number of k-points >= 100: set verbosity='high' to print them.

     Dense  grid:    14177 G-vectors     FFT dimensions: (  32,  32,  32)

     Estimated max dynamical RAM per process >      88.39 MB

     Check: negative core charge=   -0.000001

     Initial potential from superposition of free atoms

     starting charge      15.9996, renormalised to      16.0000
     Starting wfcs are    9 randomized atomic wfcs +    3 random wfcs

     total cpu time spent up to now is        5.7 secs

     Self-consistent Calculation

     iteration #  1     ecut=    75.00 Ry     beta= 0.70
     Davidson diagonalization with overlap
     ethr =  1.00E-02,  avg # of iterations =  4.5

     Threshold (ethr) on eigenvalues was too large:
     Diagonalizing with lowered threshold

     Davidson diagonalization with overlap
     ethr =  6.76E-06,  avg # of iterations =  6.8

     total cpu time spent up to now is       40.4 secs

     total energy              =    -195.49547527 Ry
     estimated scf accuracy    <       0.00112809 Ry

     iteration #  2     ecut=    75.00 Ry     beta= 0.70
     Davidson diagonalization with overlap
     ethr =  7.05E-06,  avg # of iterations =  1.0

     total cpu time spent up to now is       50.9 secs

     total energy              =    -195.49550663 Ry
     estimated scf accuracy    <       0.00009517 Ry

     iteration #  3     ecut=    75.00 Ry     beta= 0.70
     Davidson diagonalization with overlap
     ethr =  5.95E-07,  avg # of iterations =  1.5

     total cpu time spent up to now is       62.2 secs

     End of self-consistent calculation

     Number of k-points >= 100: set verbosity='high' to print the bands.

     the Fermi energy is    17.9875 ev

!    total energy              =    -195.49551093 Ry
     estimated scf accuracy    <       0.00000076 Ry
     smearing contrib. (-TS)   =      -0.00044286 Ry
     internal energy E=F+TS    =    -195.49506807 Ry

     The total energy is F=E-TS. E is the sum of the following terms:
     one-electron contribution =     -41.12855503 Ry
     hartree contribution      =      32.75882877 Ry
     xc contribution           =     -52.57512696 Ry
     ewald contribution        =    -134.55021486 Ry

     convergence has been achieved in   3 iterations

     Writing all to output data dir ../tmp/po.save/

     init_run     :     20.59s CPU      5.58s WALL (       1 calls)
     electrons    :    208.46s CPU     56.45s WALL (       1 calls)

     Called by init_run:
     wfcinit      :     17.92s CPU      4.53s WALL (       1 calls)
     potinit      :      0.07s CPU      0.01s WALL (       1 calls)
     hinit0       :      2.49s CPU      0.99s WALL (       1 calls)

     Called by electrons:
     c_bands      :    173.57s CPU     48.33s WALL (       4 calls)
     sum_band     :     34.54s CPU      8.04s WALL (       4 calls)
     v_of_rho     :      0.16s CPU      0.03s WALL (       4 calls)
     newd         :      0.25s CPU      0.06s WALL (       4 calls)
     mix_rho      :      0.01s CPU      0.00s WALL (       4 calls)

     Called by c_bands:
     init_us_2    :      1.33s CPU      0.35s WALL (    1044 calls)
     init_us_2:cp :      1.32s CPU      0.35s WALL (    1044 calls)
     cegterg      :    171.69s CPU     47.85s WALL (     464 calls)

     Called by *egterg:
     cdiaghg      :      0.88s CPU      0.25s WALL (    1952 calls)
     h_psi        :    181.20s CPU     49.69s WALL (    2184 calls)
     s_psi        :      0.71s CPU      0.22s WALL (    2184 calls)
     g_psi        :      0.58s CPU      0.20s WALL (    1604 calls)

     Called by h_psi:
     h_psi:calbec :      2.03s CPU      0.54s WALL (    2184 calls)
     vloc_psi     :    177.74s CPU     48.70s WALL (    2184 calls)
     add_vuspsi   :      0.74s CPU      0.24s WALL (    2184 calls)

     General routines
     calbec       :      2.76s CPU      0.71s WALL (    2648 calls)
     fft          :      2.29s CPU      0.77s WALL (      45 calls)
     ffts         :      0.01s CPU      0.00s WALL (       4 calls)
     fftw         :    187.06s CPU     50.13s WALL (   37606 calls)

     Parallel routines

     PWSCF        :   3m50.47s CPU   1m 2.83s WALL


   This run was terminated on:  11:47:48  13Mar2022            

=------------------------------------------------------------------------------=
   JOB DONE.
=------------------------------------------------------------------------------=
