
     Program PWSCF v.7.0 starts on 13Mar2022 at 11:42:49 

     This program is part of the open-source Quantum ESPRESSO suite
     for quantum simulation of materials; please cite
         "P. Giannozzi et al., J. Phys.:Condens. Matter 21 395502 (2009);
         "P. Giannozzi et al., J. Phys.:Condens. Matter 29 465901 (2017);
         "P. Giannozzi et al., J. Chem. Phys. 152 154105 (2020);
          URL http://www.quantum-espresso.org", 
     in publications or presentations arising from this work. More details at
     http://www.quantum-espresso.org/quote

     Parallel version (MPI & OpenMP), running on      10 processor cores
     Number of MPI processes:                 1
     Threads/MPI process:                    10

     MPI processes distributed on     1 nodes
     0 MiB available memory on the printing compute node when the environment starts

     Reading input from po.scf.edge5.6116848019.angle0.3420.in

     Current dimensions of program PWSCF are:
     Max number of different atomic species (ntypx) = 10
     Max number of k-points (npk) =  40000
     Max angular momentum in pseudopotentials (lmaxx) =  4
     file Po.pbe-dn-rrkjus_psl.1.0.0.UPF: wavefunction(s)  5D renormalized

     Subspace diagonalization in iterative solution of the eigenvalue problem:
     a serial algorithm will be used


     G-vector sticks info
     --------------------
     sticks:   dense  smooth     PW     G-vecs:    dense   smooth      PW
     Sum         709     709    219                13301    13301    2329

     Using Slab Decomposition



     bravais-lattice index     =            5
     lattice parameter (alat)  =       5.6117  a.u.
     unit-cell volume          =     150.8957 (a.u.)^3
     number of atoms/cell      =            1
     number of atomic types    =            1
     number of electrons       =        16.00
     number of Kohn-Sham states=           12
     kinetic-energy cutoff     =      75.0000  Ry
     charge density cutoff     =     300.0000  Ry
     scf convergence threshold =      1.0E-06
     mixing beta               =       0.7000
     number of iterations used =            8  plain     mixing
     Exchange-correlation= PBE
                           (   1   4   3   4   0   0   0)

     celldm(1)=   5.611685  celldm(2)=   0.000000  celldm(3)=   0.000000
     celldm(4)=   0.342000  celldm(5)=   0.000000  celldm(6)=   0.000000

     crystal axes: (cart. coord. in units of alat)
               a(1) = (   0.573585  -0.331160   0.749222 )  
               a(2) = (   0.000000   0.662319   0.749222 )  
               a(3) = (  -0.573585  -0.331160   0.749222 )  

     reciprocal axes: (cart. coord. in units 2 pi/alat)
               b(1) = (  0.871710 -0.503282  0.444906 )  
               b(2) = (  0.000000  1.006564  0.444906 )  
               b(3) = ( -0.871710 -0.503282  0.444906 )  


     PseudoPot. # 1 for Po read from file:
     ../pseudo/Po.pbe-dn-rrkjus_psl.1.0.0.UPF
     MD5 check sum: 93671b84bf7252fd23d3fb506349bc50
     Pseudo is Ultrasoft + core correction, Zval = 16.0
     Generated using &quot;atomic&quot; code by A. Dal Corso  v.6.2.2
     Using radial grid of 1283 points,  6 beta functions with: 
                l(1) =   0
                l(2) =   0
                l(3) =   1
                l(4) =   1
                l(5) =   2
                l(6) =   2
     Q(r) pseudized with 0 coefficients 


     atomic species   valence    mass     pseudopotential
        Po            16.00   209.00000     Po( 1.00)

     12 Sym. Ops., with inversion, found



   Cartesian axes

     site n.     atom                  positions (alat units)
         1           Po  tau(   1) = (   0.0000000   0.0000000   0.0000000  )

     number of k points=   116  Marzari-Vanderbilt smearing, width (Ry)=  0.0600

     Number of k-points >= 100: set verbosity='high' to print them.

     Dense  grid:    13301 G-vectors     FFT dimensions: (  32,  32,  32)

     Estimated max dynamical RAM per process >      83.03 MB

     Check: negative core charge=   -0.000001

     Initial potential from superposition of free atoms

     starting charge      15.9996, renormalised to      16.0000
     Starting wfcs are    9 randomized atomic wfcs +    3 random wfcs

     total cpu time spent up to now is        5.8 secs

     Self-consistent Calculation

     iteration #  1     ecut=    75.00 Ry     beta= 0.70
     Davidson diagonalization with overlap
     ethr =  1.00E-02,  avg # of iterations =  4.7

     Threshold (ethr) on eigenvalues was too large:
     Diagonalizing with lowered threshold

     Davidson diagonalization with overlap
     c_bands:  1 eigenvalues not converged
     ethr =  4.84E-06,  avg # of iterations =  7.2

     total cpu time spent up to now is       40.7 secs

     total energy              =    -195.47088855 Ry
     estimated scf accuracy    <       0.00081462 Ry

     iteration #  2     ecut=    75.00 Ry     beta= 0.70
     Davidson diagonalization with overlap
     ethr =  5.09E-06,  avg # of iterations =  1.0

     total cpu time spent up to now is       51.8 secs

     total energy              =    -195.47092044 Ry
     estimated scf accuracy    <       0.00006531 Ry

     iteration #  3     ecut=    75.00 Ry     beta= 0.70
     Davidson diagonalization with overlap
     ethr =  4.08E-07,  avg # of iterations =  1.9

     total cpu time spent up to now is       63.3 secs

     End of self-consistent calculation

     Number of k-points >= 100: set verbosity='high' to print the bands.

     the Fermi energy is    19.3843 ev

!    total energy              =    -195.47092393 Ry
     estimated scf accuracy    <       0.00000046 Ry
     smearing contrib. (-TS)   =      -0.00050153 Ry
     internal energy E=F+TS    =    -195.47042240 Ry

     The total energy is F=E-TS. E is the sum of the following terms:
     one-electron contribution =     -35.39994083 Ry
     hartree contribution      =      30.73599251 Ry
     xc contribution           =     -52.61703607 Ry
     ewald contribution        =    -138.18943801 Ry

     convergence has been achieved in   3 iterations

     Writing all to output data dir ../tmp/po.save/

     init_run     :     21.94s CPU      5.69s WALL (       1 calls)
     electrons    :    202.94s CPU     57.50s WALL (       1 calls)

     Called by init_run:
     wfcinit      :     19.36s CPU      4.65s WALL (       1 calls)
     potinit      :      0.07s CPU      0.01s WALL (       1 calls)
     hinit0       :      2.40s CPU      0.99s WALL (       1 calls)

     Called by electrons:
     c_bands      :    170.94s CPU     49.63s WALL (       4 calls)
     sum_band     :     31.63s CPU      7.78s WALL (       4 calls)
     v_of_rho     :      0.20s CPU      0.04s WALL (       4 calls)
     newd         :      0.25s CPU      0.06s WALL (       4 calls)
     mix_rho      :      0.01s CPU      0.00s WALL (       4 calls)

     Called by c_bands:
     init_us_2    :      1.33s CPU      0.35s WALL (    1044 calls)
     init_us_2:cp :      1.32s CPU      0.35s WALL (    1044 calls)
     cegterg      :    169.09s CPU     49.16s WALL (     464 calls)

     Called by *egterg:
     cdiaghg      :      0.93s CPU      0.27s WALL (    2073 calls)
     h_psi        :    179.82s CPU     51.07s WALL (    2305 calls)
     s_psi        :      0.71s CPU      0.22s WALL (    2305 calls)
     g_psi        :      0.59s CPU      0.20s WALL (    1725 calls)

     Called by h_psi:
     h_psi:calbec :      2.03s CPU      0.57s WALL (    2305 calls)
     vloc_psi     :    176.29s CPU     50.01s WALL (    2305 calls)
     add_vuspsi   :      0.75s CPU      0.25s WALL (    2305 calls)

     General routines
     calbec       :      2.76s CPU      0.75s WALL (    2769 calls)
     fft          :      2.21s CPU      0.76s WALL (      45 calls)
     ffts         :      0.01s CPU      0.00s WALL (       4 calls)
     fftw         :    182.99s CPU     50.98s WALL (   38348 calls)

     Parallel routines

     PWSCF        :   3m46.50s CPU   1m 4.03s WALL


   This run was terminated on:  11:43:53  13Mar2022            

=------------------------------------------------------------------------------=
   JOB DONE.
=------------------------------------------------------------------------------=
