
     Program PWSCF v.7.0 starts on 12Mar2022 at 22:14:14 

     This program is part of the open-source Quantum ESPRESSO suite
     for quantum simulation of materials; please cite
         "P. Giannozzi et al., J. Phys.:Condens. Matter 21 395502 (2009);
         "P. Giannozzi et al., J. Phys.:Condens. Matter 29 465901 (2017);
         "P. Giannozzi et al., J. Chem. Phys. 152 154105 (2020);
          URL http://www.quantum-espresso.org", 
     in publications or presentations arising from this work. More details at
     http://www.quantum-espresso.org/quote

     Parallel version (MPI & OpenMP), running on      10 processor cores
     Number of MPI processes:                 1
     Threads/MPI process:                    10

     MPI processes distributed on     1 nodes
     0 MiB available memory on the printing compute node when the environment starts

     Reading input from po.scf.edge4.2116848019.angle0.1736.in

     Current dimensions of program PWSCF are:
     Max number of different atomic species (ntypx) = 10
     Max number of k-points (npk) =  40000
     Max angular momentum in pseudopotentials (lmaxx) =  4
     file Po.pbe-dn-rrkjus_psl.1.0.0.UPF: wavefunction(s)  5D renormalized

     Subspace diagonalization in iterative solution of the eigenvalue problem:
     a serial algorithm will be used


     G-vector sticks info
     --------------------
     sticks:   dense  smooth     PW     G-vecs:    dense   smooth      PW
     Sum         415     415    135                 6273     6273    1185

     Using Slab Decomposition



     bravais-lattice index     =            5
     lattice parameter (alat)  =       4.2117  a.u.
     unit-cell volume          =      71.6595 (a.u.)^3
     number of atoms/cell      =            1
     number of atomic types    =            1
     number of electrons       =        16.00
     number of Kohn-Sham states=           12
     kinetic-energy cutoff     =      75.0000  Ry
     charge density cutoff     =     300.0000  Ry
     scf convergence threshold =      1.0E-06
     mixing beta               =       0.7000
     number of iterations used =            8  plain     mixing
     Exchange-correlation= PBE
                           (   1   4   3   4   0   0   0)

     celldm(1)=   4.211685  celldm(2)=   0.000000  celldm(3)=   0.000000
     celldm(4)=   0.173600  celldm(5)=   0.000000  celldm(6)=   0.000000

     crystal axes: (cart. coord. in units of alat)
               a(1) = (   0.642806  -0.371124   0.670124 )  
               a(2) = (   0.000000   0.742249   0.670124 )  
               a(3) = (  -0.642806  -0.371124   0.670124 )  

     reciprocal axes: (cart. coord. in units 2 pi/alat)
               b(1) = (  0.777839 -0.449086  0.497420 )  
               b(2) = (  0.000000  0.898171  0.497420 )  
               b(3) = ( -0.777839 -0.449086  0.497420 )  


     PseudoPot. # 1 for Po read from file:
     ../pseudo/Po.pbe-dn-rrkjus_psl.1.0.0.UPF
     MD5 check sum: 93671b84bf7252fd23d3fb506349bc50
     Pseudo is Ultrasoft + core correction, Zval = 16.0
     Generated using &quot;atomic&quot; code by A. Dal Corso  v.6.2.2
     Using radial grid of 1283 points,  6 beta functions with: 
                l(1) =   0
                l(2) =   0
                l(3) =   1
                l(4) =   1
                l(5) =   2
                l(6) =   2
     Q(r) pseudized with 0 coefficients 


     atomic species   valence    mass     pseudopotential
        Po            16.00   209.00000     Po( 1.00)

     12 Sym. Ops., with inversion, found



   Cartesian axes

     site n.     atom                  positions (alat units)
         1           Po  tau(   1) = (   0.0000000   0.0000000   0.0000000  )

     number of k points=   116  Marzari-Vanderbilt smearing, width (Ry)=  0.0600

     Number of k-points >= 100: set verbosity='high' to print them.

     Dense  grid:     6273 G-vectors     FFT dimensions: (  24,  24,  24)

     Estimated max dynamical RAM per process >      39.90 MB

     Initial potential from superposition of free atoms

     starting charge      15.9996, renormalised to      16.0000
     Starting wfcs are    9 randomized atomic wfcs +    3 random wfcs

     total cpu time spent up to now is       30.1 secs

     Self-consistent Calculation

     iteration #  1     ecut=    75.00 Ry     beta= 0.70
     Davidson diagonalization with overlap
     ethr =  1.00E-02,  avg # of iterations =  6.1

     Threshold (ethr) on eigenvalues was too large:
     Diagonalizing with lowered threshold

     Davidson diagonalization with overlap
     ethr =  4.83E-05,  avg # of iterations =  4.6

     total cpu time spent up to now is      253.9 secs

     total energy              =    -193.75797221 Ry
     estimated scf accuracy    <       0.00805362 Ry

     iteration #  2     ecut=    75.00 Ry     beta= 0.70
     Davidson diagonalization with overlap
     ethr =  5.03E-05,  avg # of iterations =  1.5

     total cpu time spent up to now is      327.6 secs

     total energy              =    -193.75813864 Ry
     estimated scf accuracy    <       0.00038250 Ry

     iteration #  3     ecut=    75.00 Ry     beta= 0.70
     Davidson diagonalization with overlap
     ethr =  2.39E-06,  avg # of iterations =  2.9

     total cpu time spent up to now is      415.6 secs

     total energy              =    -193.75819304 Ry
     estimated scf accuracy    <       0.00000303 Ry

     iteration #  4     ecut=    75.00 Ry     beta= 0.70
     Davidson diagonalization with overlap
     ethr =  1.89E-08,  avg # of iterations =  3.7

     total cpu time spent up to now is      508.5 secs

     End of self-consistent calculation

     Number of k-points >= 100: set verbosity='high' to print the bands.

     the Fermi energy is    45.7360 ev

!    total energy              =    -193.75819499 Ry
     estimated scf accuracy    <       0.00000012 Ry
     smearing contrib. (-TS)   =       0.00028205 Ry
     internal energy E=F+TS    =    -193.75847704 Ry

     The total energy is F=E-TS. E is the sum of the following terms:
     one-electron contribution =      18.78896687 Ry
     hartree contribution      =      17.06881959 Ry
     xc contribution           =     -53.99188227 Ry
     ewald contribution        =    -175.62438124 Ry

     convergence has been achieved in   4 iterations

     Writing all to output data dir ../tmp/po.save/

     init_run     :    101.28s CPU     29.91s WALL (       1 calls)
     electrons    :   1532.19s CPU    478.43s WALL (       1 calls)

     Called by init_run:
     wfcinit      :     98.94s CPU     28.94s WALL (       1 calls)
     potinit      :      0.04s CPU      0.01s WALL (       1 calls)
     hinit0       :      2.25s CPU      0.94s WALL (       1 calls)

     Called by electrons:
     c_bands      :   1298.60s CPU    408.52s WALL (       5 calls)
     sum_band     :    233.30s CPU     69.84s WALL (       5 calls)
     v_of_rho     :      0.12s CPU      0.03s WALL (       5 calls)
     newd         :      0.15s CPU      0.03s WALL (       5 calls)
     mix_rho      :      0.01s CPU      0.00s WALL (       5 calls)

     Called by c_bands:
     init_us_2    :      0.76s CPU      0.22s WALL (    1276 calls)
     init_us_2:cp :      0.75s CPU      0.22s WALL (    1276 calls)
     cegterg      :   1297.59s CPU    408.21s WALL (     580 calls)

     Called by *egterg:
     cdiaghg      :      1.21s CPU      0.36s WALL (    2650 calls)
     h_psi        :   1388.13s CPU    434.24s WALL (    2882 calls)
     s_psi        :      0.58s CPU      0.20s WALL (    2882 calls)
     g_psi        :      0.68s CPU      0.25s WALL (    2186 calls)

     Called by h_psi:
     h_psi:calbec :      1.49s CPU      0.43s WALL (    2882 calls)
     vloc_psi     :   1385.14s CPU    433.27s WALL (    2882 calls)
     add_vuspsi   :      0.64s CPU      0.26s WALL (    2882 calls)

     General routines
     calbec       :      1.90s CPU      0.54s WALL (    3462 calls)
     fft          :      2.07s CPU      0.72s WALL (      56 calls)
     ffts         :      0.01s CPU      0.00s WALL (       5 calls)
     fftw         :   1589.95s CPU    494.48s WALL (   48268 calls)

     Parallel routines

     PWSCF        :  27m14.30s CPU   8m28.86s WALL


   This run was terminated on:  22:22:43  12Mar2022            

=------------------------------------------------------------------------------=
   JOB DONE.
=------------------------------------------------------------------------------=
