
     Program PWSCF v.7.0 starts on 12Mar2022 at 22:47:14 

     This program is part of the open-source Quantum ESPRESSO suite
     for quantum simulation of materials; please cite
         "P. Giannozzi et al., J. Phys.:Condens. Matter 21 395502 (2009);
         "P. Giannozzi et al., J. Phys.:Condens. Matter 29 465901 (2017);
         "P. Giannozzi et al., J. Chem. Phys. 152 154105 (2020);
          URL http://www.quantum-espresso.org", 
     in publications or presentations arising from this work. More details at
     http://www.quantum-espresso.org/quote

     Parallel version (MPI & OpenMP), running on      10 processor cores
     Number of MPI processes:                 1
     Threads/MPI process:                    10

     MPI processes distributed on     1 nodes
     0 MiB available memory on the printing compute node when the environment starts

     Reading input from po.scf.edge4.2116848019.angle0.3420.in

     Current dimensions of program PWSCF are:
     Max number of different atomic species (ntypx) = 10
     Max number of k-points (npk) =  40000
     Max angular momentum in pseudopotentials (lmaxx) =  4
     file Po.pbe-dn-rrkjus_psl.1.0.0.UPF: wavefunction(s)  5D renormalized

     Subspace diagonalization in iterative solution of the eigenvalue problem:
     a serial algorithm will be used


     G-vector sticks info
     --------------------
     sticks:   dense  smooth     PW     G-vecs:    dense   smooth      PW
     Sum         399     399    129                 5591     5591    1091

     Using Slab Decomposition



     bravais-lattice index     =            5
     lattice parameter (alat)  =       4.2117  a.u.
     unit-cell volume          =      63.7918 (a.u.)^3
     number of atoms/cell      =            1
     number of atomic types    =            1
     number of electrons       =        16.00
     number of Kohn-Sham states=           12
     kinetic-energy cutoff     =      75.0000  Ry
     charge density cutoff     =     300.0000  Ry
     scf convergence threshold =      1.0E-06
     mixing beta               =       0.7000
     number of iterations used =            8  plain     mixing
     Exchange-correlation= PBE
                           (   1   4   3   4   0   0   0)

     celldm(1)=   4.211685  celldm(2)=   0.000000  celldm(3)=   0.000000
     celldm(4)=   0.342000  celldm(5)=   0.000000  celldm(6)=   0.000000

     crystal axes: (cart. coord. in units of alat)
               a(1) = (   0.573585  -0.331160   0.749222 )  
               a(2) = (   0.000000   0.662319   0.749222 )  
               a(3) = (  -0.573585  -0.331160   0.749222 )  

     reciprocal axes: (cart. coord. in units 2 pi/alat)
               b(1) = (  0.871710 -0.503282  0.444906 )  
               b(2) = (  0.000000  1.006564  0.444906 )  
               b(3) = ( -0.871710 -0.503282  0.444906 )  


     PseudoPot. # 1 for Po read from file:
     ../pseudo/Po.pbe-dn-rrkjus_psl.1.0.0.UPF
     MD5 check sum: 93671b84bf7252fd23d3fb506349bc50
     Pseudo is Ultrasoft + core correction, Zval = 16.0
     Generated using &quot;atomic&quot; code by A. Dal Corso  v.6.2.2
     Using radial grid of 1283 points,  6 beta functions with: 
                l(1) =   0
                l(2) =   0
                l(3) =   1
                l(4) =   1
                l(5) =   2
                l(6) =   2
     Q(r) pseudized with 0 coefficients 


     atomic species   valence    mass     pseudopotential
        Po            16.00   209.00000     Po( 1.00)

     12 Sym. Ops., with inversion, found



   Cartesian axes

     site n.     atom                  positions (alat units)
         1           Po  tau(   1) = (   0.0000000   0.0000000   0.0000000  )

     number of k points=   116  Marzari-Vanderbilt smearing, width (Ry)=  0.0600

     Number of k-points >= 100: set verbosity='high' to print them.

     Dense  grid:     5591 G-vectors     FFT dimensions: (  24,  24,  24)

     Estimated max dynamical RAM per process >      35.81 MB

     Initial potential from superposition of free atoms

     starting charge      15.9996, renormalised to      16.0000
     Starting wfcs are    9 randomized atomic wfcs +    3 random wfcs

     total cpu time spent up to now is       27.8 secs

     Self-consistent Calculation

     iteration #  1     ecut=    75.00 Ry     beta= 0.70
     Davidson diagonalization with overlap
     ethr =  1.00E-02,  avg # of iterations =  6.0

     Threshold (ethr) on eigenvalues was too large:
     Diagonalizing with lowered threshold

     Davidson diagonalization with overlap
     ethr =  5.76E-05,  avg # of iterations =  4.2

     total cpu time spent up to now is      251.3 secs

     total energy              =    -193.43354249 Ry
     estimated scf accuracy    <       0.00952257 Ry

     iteration #  2     ecut=    75.00 Ry     beta= 0.70
     Davidson diagonalization with overlap
     ethr =  5.95E-05,  avg # of iterations =  1.2

     total cpu time spent up to now is      325.9 secs

     total energy              =    -193.43367019 Ry
     estimated scf accuracy    <       0.00048885 Ry

     iteration #  3     ecut=    75.00 Ry     beta= 0.70
     Davidson diagonalization with overlap
     ethr =  3.06E-06,  avg # of iterations =  3.0

     total cpu time spent up to now is      416.0 secs

     total energy              =    -193.43373468 Ry
     estimated scf accuracy    <       0.00000327 Ry

     iteration #  4     ecut=    75.00 Ry     beta= 0.70
     Davidson diagonalization with overlap
     ethr =  2.04E-08,  avg # of iterations =  3.7

     total cpu time spent up to now is      506.1 secs

     End of self-consistent calculation

     Number of k-points >= 100: set verbosity='high' to print the bands.

     the Fermi energy is    51.1973 ev

!    total energy              =    -193.43373690 Ry
     estimated scf accuracy    <       0.00000027 Ry
     smearing contrib. (-TS)   =      -0.00110639 Ry
     internal energy E=F+TS    =    -193.43263051 Ry

     The total energy is F=E-TS. E is the sum of the following terms:
     one-electron contribution =      30.71205167 Ry
     hartree contribution      =      14.24408794 Ry
     xc contribution           =     -54.26398263 Ry
     ewald contribution        =    -184.12478748 Ry

     convergence has been achieved in   4 iterations

     Writing all to output data dir ../tmp/po.save/

     init_run     :     93.84s CPU     27.65s WALL (       1 calls)
     electrons    :   1482.57s CPU    478.33s WALL (       1 calls)

     Called by init_run:
     wfcinit      :     91.52s CPU     26.76s WALL (       1 calls)
     potinit      :      0.04s CPU      0.01s WALL (       1 calls)
     hinit0       :      2.25s CPU      0.87s WALL (       1 calls)

     Called by electrons:
     c_bands      :   1258.36s CPU    411.33s WALL (       5 calls)
     sum_band     :    223.94s CPU     66.93s WALL (       5 calls)
     v_of_rho     :      0.11s CPU      0.02s WALL (       5 calls)
     newd         :      0.14s CPU      0.03s WALL (       5 calls)
     mix_rho      :      0.01s CPU      0.00s WALL (       5 calls)

     Called by c_bands:
     init_us_2    :      0.71s CPU      0.21s WALL (    1276 calls)
     init_us_2:cp :      0.70s CPU      0.21s WALL (    1276 calls)
     cegterg      :   1257.47s CPU    411.05s WALL (     580 calls)

     Called by *egterg:
     cdiaghg      :      1.19s CPU      0.35s WALL (    2562 calls)
     h_psi        :   1341.06s CPU    435.01s WALL (    2794 calls)
     s_psi        :      0.54s CPU      0.19s WALL (    2794 calls)
     g_psi        :      0.66s CPU      0.26s WALL (    2098 calls)

     Called by h_psi:
     h_psi:calbec :      1.30s CPU      0.39s WALL (    2794 calls)
     vloc_psi     :   1338.34s CPU    434.09s WALL (    2794 calls)
     add_vuspsi   :      0.59s CPU      0.25s WALL (    2794 calls)

     General routines
     calbec       :      1.68s CPU      0.49s WALL (    3374 calls)
     fft          :      2.06s CPU      0.65s WALL (      56 calls)
     ffts         :      0.01s CPU      0.00s WALL (       5 calls)
     fftw         :   1533.93s CPU    492.12s WALL (   47972 calls)

     Parallel routines

     PWSCF        :  26m17.61s CPU   8m26.80s WALL


   This run was terminated on:  22:55:41  12Mar2022            

=------------------------------------------------------------------------------=
   JOB DONE.
=------------------------------------------------------------------------------=
