
     Program PWSCF v.7.0 starts on 13Mar2022 at 12:46:56 

     This program is part of the open-source Quantum ESPRESSO suite
     for quantum simulation of materials; please cite
         "P. Giannozzi et al., J. Phys.:Condens. Matter 21 395502 (2009);
         "P. Giannozzi et al., J. Phys.:Condens. Matter 29 465901 (2017);
         "P. Giannozzi et al., J. Chem. Phys. 152 154105 (2020);
          URL http://www.quantum-espresso.org", 
     in publications or presentations arising from this work. More details at
     http://www.quantum-espresso.org/quote

     Parallel version (MPI & OpenMP), running on      10 processor cores
     Number of MPI processes:                 1
     Threads/MPI process:                    10

     MPI processes distributed on     1 nodes
     0 MiB available memory on the printing compute node when the environment starts

     Reading input from po.scf.edge4.9116848019.angle0.0872.in

     Current dimensions of program PWSCF are:
     Max number of different atomic species (ntypx) = 10
     Max number of k-points (npk) =  40000
     Max angular momentum in pseudopotentials (lmaxx) =  4
     file Po.pbe-dn-rrkjus_psl.1.0.0.UPF: wavefunction(s)  5D renormalized

     Subspace diagonalization in iterative solution of the eigenvalue problem:
     a serial algorithm will be used


     G-vector sticks info
     --------------------
     sticks:   dense  smooth     PW     G-vecs:    dense   smooth      PW
     Sum         573     573    185                10337    10337    1833

     Using Slab Decomposition



     bravais-lattice index     =            5
     lattice parameter (alat)  =       4.9117  a.u.
     unit-cell volume          =     117.2128 (a.u.)^3
     number of atoms/cell      =            1
     number of atomic types    =            1
     number of electrons       =        16.00
     number of Kohn-Sham states=           12
     kinetic-energy cutoff     =      75.0000  Ry
     charge density cutoff     =     300.0000  Ry
     scf convergence threshold =      1.0E-06
     mixing beta               =       0.7000
     number of iterations used =            8  plain     mixing
     Exchange-correlation= PBE
                           (   1   4   3   4   0   0   0)

     celldm(1)=   4.911685  celldm(2)=   0.000000  celldm(3)=   0.000000
     celldm(4)=   0.087200  celldm(5)=   0.000000  celldm(6)=   0.000000

     crystal axes: (cart. coord. in units of alat)
               a(1) = (   0.675574  -0.390043   0.625673 )  
               a(2) = (   0.000000   0.780085   0.625673 )  
               a(3) = (  -0.675574  -0.390043   0.625673 )  

     reciprocal axes: (cart. coord. in units 2 pi/alat)
               b(1) = (  0.740112 -0.427304  0.532760 )  
               b(2) = (  0.000000  0.854607  0.532760 )  
               b(3) = ( -0.740112 -0.427304  0.532760 )  


     PseudoPot. # 1 for Po read from file:
     ../pseudo/Po.pbe-dn-rrkjus_psl.1.0.0.UPF
     MD5 check sum: 93671b84bf7252fd23d3fb506349bc50
     Pseudo is Ultrasoft + core correction, Zval = 16.0
     Generated using &quot;atomic&quot; code by A. Dal Corso  v.6.2.2
     Using radial grid of 1283 points,  6 beta functions with: 
                l(1) =   0
                l(2) =   0
                l(3) =   1
                l(4) =   1
                l(5) =   2
                l(6) =   2
     Q(r) pseudized with 0 coefficients 


     atomic species   valence    mass     pseudopotential
        Po            16.00   209.00000     Po( 1.00)

     12 Sym. Ops., with inversion, found



   Cartesian axes

     site n.     atom                  positions (alat units)
         1           Po  tau(   1) = (   0.0000000   0.0000000   0.0000000  )

     number of k points=   116  Marzari-Vanderbilt smearing, width (Ry)=  0.0600

     Number of k-points >= 100: set verbosity='high' to print them.

     Dense  grid:    10337 G-vectors     FFT dimensions: (  27,  27,  27)

     Estimated max dynamical RAM per process >      64.44 MB

     Check: negative core charge=   -0.000001

     Initial potential from superposition of free atoms

     starting charge      15.9996, renormalised to      16.0000
     Starting wfcs are    9 randomized atomic wfcs +    3 random wfcs

     total cpu time spent up to now is       31.2 secs

     Self-consistent Calculation

     iteration #  1     ecut=    75.00 Ry     beta= 0.70
     Davidson diagonalization with overlap
     ethr =  1.00E-02,  avg # of iterations =  5.3

     Threshold (ethr) on eigenvalues was too large:
     Diagonalizing with lowered threshold

     Davidson diagonalization with overlap
     ethr =  1.55E-05,  avg # of iterations =  5.0

     total cpu time spent up to now is      278.2 secs

     total energy              =    -195.12422544 Ry
     estimated scf accuracy    <       0.00268883 Ry

     iteration #  2     ecut=    75.00 Ry     beta= 0.70
     Davidson diagonalization with overlap
     ethr =  1.68E-05,  avg # of iterations =  1.4

     total cpu time spent up to now is      362.4 secs

     total energy              =    -195.12438016 Ry
     estimated scf accuracy    <       0.00014596 Ry

     iteration #  3     ecut=    75.00 Ry     beta= 0.70
     Davidson diagonalization with overlap
     ethr =  9.12E-07,  avg # of iterations =  2.1

     total cpu time spent up to now is      456.6 secs

     total energy              =    -195.12439559 Ry
     estimated scf accuracy    <       0.00000685 Ry

     iteration #  4     ecut=    75.00 Ry     beta= 0.70
     Davidson diagonalization with overlap
     ethr =  4.28E-08,  avg # of iterations =  2.5

     total cpu time spent up to now is      564.6 secs

     End of self-consistent calculation

     Number of k-points >= 100: set verbosity='high' to print the bands.

     the Fermi energy is    27.1271 ev

!    total energy              =    -195.12439729 Ry
     estimated scf accuracy    <       0.00000005 Ry
     smearing contrib. (-TS)   =      -0.00292155 Ry
     internal energy E=F+TS    =    -195.12147573 Ry

     The total energy is F=E-TS. E is the sum of the following terms:
     one-electron contribution =     -20.43742473 Ry
     hartree contribution      =      26.92798046 Ry
     xc contribution           =     -53.01509324 Ry
     ewald contribution        =    -148.59693822 Ry

     convergence has been achieved in   4 iterations

     Writing all to output data dir ../tmp/po.save/

     init_run     :    135.62s CPU     31.05s WALL (       1 calls)
     electrons    :   1961.43s CPU    533.43s WALL (       1 calls)

     Called by init_run:
     wfcinit      :    132.58s CPU     29.81s WALL (       1 calls)
     potinit      :      0.07s CPU      0.02s WALL (       1 calls)
     hinit0       :      2.87s CPU      1.20s WALL (       1 calls)

     Called by electrons:
     c_bands      :   1653.31s CPU    461.65s WALL (       5 calls)
     sum_band     :    307.73s CPU     71.68s WALL (       5 calls)
     v_of_rho     :      0.18s CPU      0.04s WALL (       5 calls)
     newd         :      0.26s CPU      0.06s WALL (       5 calls)
     mix_rho      :      0.01s CPU      0.00s WALL (       5 calls)

     Called by c_bands:
     init_us_2    :      1.27s CPU      0.33s WALL (    1276 calls)
     init_us_2:cp :      1.26s CPU      0.33s WALL (    1276 calls)
     cegterg      :   1651.55s CPU    461.18s WALL (     580 calls)

     Called by *egterg:
     cdiaghg      :      1.04s CPU      0.30s WALL (    2342 calls)
     h_psi        :   1775.03s CPU    488.02s WALL (    2574 calls)
     s_psi        :      0.73s CPU      0.23s WALL (    2574 calls)
     g_psi        :      0.64s CPU      0.23s WALL (    1878 calls)

     Called by h_psi:
     h_psi:calbec :      2.26s CPU      0.58s WALL (    2574 calls)
     vloc_psi     :   1771.19s CPU    486.93s WALL (    2574 calls)
     add_vuspsi   :      0.80s CPU      0.28s WALL (    2574 calls)

     General routines
     calbec       :      2.96s CPU      0.74s WALL (    3154 calls)
     fft          :      2.71s CPU      0.99s WALL (      56 calls)
     ffts         :      0.01s CPU      0.00s WALL (       5 calls)
     fftw         :   2049.59s CPU    550.95s WALL (   46876 calls)

     Parallel routines

     PWSCF        :  34m58.50s CPU   9m25.29s WALL


   This run was terminated on:  12:56:21  13Mar2022            

=------------------------------------------------------------------------------=
   JOB DONE.
=------------------------------------------------------------------------------=
