
     Program PWSCF v.7.0 starts on 13Mar2022 at  8:22:17 

     This program is part of the open-source Quantum ESPRESSO suite
     for quantum simulation of materials; please cite
         "P. Giannozzi et al., J. Phys.:Condens. Matter 21 395502 (2009);
         "P. Giannozzi et al., J. Phys.:Condens. Matter 29 465901 (2017);
         "P. Giannozzi et al., J. Chem. Phys. 152 154105 (2020);
          URL http://www.quantum-espresso.org", 
     in publications or presentations arising from this work. More details at
     http://www.quantum-espresso.org/quote

     Parallel version (MPI & OpenMP), running on      10 processor cores
     Number of MPI processes:                 1
     Threads/MPI process:                    10

     MPI processes distributed on     1 nodes
     0 MiB available memory on the printing compute node when the environment starts

     Reading input from po.scf.edge6.3116848019.angle0.1736.in

     Current dimensions of program PWSCF are:
     Max number of different atomic species (ntypx) = 10
     Max number of k-points (npk) =  40000
     Max angular momentum in pseudopotentials (lmaxx) =  4
     file Po.pbe-dn-rrkjus_psl.1.0.0.UPF: wavefunction(s)  5D renormalized

     Subspace diagonalization in iterative solution of the eigenvalue problem:
     a serial algorithm will be used


     G-vector sticks info
     --------------------
     sticks:   dense  smooth     PW     G-vecs:    dense   smooth      PW
     Sum         941     941    283                21221    21221    3547

     Using Slab Decomposition



     bravais-lattice index     =            5
     lattice parameter (alat)  =       6.3117  a.u.
     unit-cell volume          =     241.1805 (a.u.)^3
     number of atoms/cell      =            1
     number of atomic types    =            1
     number of electrons       =        16.00
     number of Kohn-Sham states=           12
     kinetic-energy cutoff     =      75.0000  Ry
     charge density cutoff     =     300.0000  Ry
     scf convergence threshold =      1.0E-06
     mixing beta               =       0.7000
     number of iterations used =            8  plain     mixing
     Exchange-correlation= PBE
                           (   1   4   3   4   0   0   0)

     celldm(1)=   6.311685  celldm(2)=   0.000000  celldm(3)=   0.000000
     celldm(4)=   0.173600  celldm(5)=   0.000000  celldm(6)=   0.000000

     crystal axes: (cart. coord. in units of alat)
               a(1) = (   0.642806  -0.371124   0.670124 )  
               a(2) = (   0.000000   0.742249   0.670124 )  
               a(3) = (  -0.642806  -0.371124   0.670124 )  

     reciprocal axes: (cart. coord. in units 2 pi/alat)
               b(1) = (  0.777839 -0.449086  0.497420 )  
               b(2) = (  0.000000  0.898171  0.497420 )  
               b(3) = ( -0.777839 -0.449086  0.497420 )  


     PseudoPot. # 1 for Po read from file:
     ../pseudo/Po.pbe-dn-rrkjus_psl.1.0.0.UPF
     MD5 check sum: 93671b84bf7252fd23d3fb506349bc50
     Pseudo is Ultrasoft + core correction, Zval = 16.0
     Generated using &quot;atomic&quot; code by A. Dal Corso  v.6.2.2
     Using radial grid of 1283 points,  6 beta functions with: 
                l(1) =   0
                l(2) =   0
                l(3) =   1
                l(4) =   1
                l(5) =   2
                l(6) =   2
     Q(r) pseudized with 0 coefficients 


     atomic species   valence    mass     pseudopotential
        Po            16.00   209.00000     Po( 1.00)

     12 Sym. Ops., with inversion, found



   Cartesian axes

     site n.     atom                  positions (alat units)
         1           Po  tau(   1) = (   0.0000000   0.0000000   0.0000000  )

     number of k points=   116  Marzari-Vanderbilt smearing, width (Ry)=  0.0600

     Number of k-points >= 100: set verbosity='high' to print them.

     Dense  grid:    21221 G-vectors     FFT dimensions: (  36,  36,  36)

     Estimated max dynamical RAM per process >     131.36 MB

     Check: negative core charge=   -0.000002

     Initial potential from superposition of free atoms

     starting charge      15.9996, renormalised to      16.0000
     Starting wfcs are    9 randomized atomic wfcs +    3 random wfcs

     total cpu time spent up to now is       58.4 secs

     Self-consistent Calculation

     iteration #  1     ecut=    75.00 Ry     beta= 0.70
     Davidson diagonalization with overlap
     ethr =  1.00E-02,  avg # of iterations =  4.4

     Threshold (ethr) on eigenvalues was too large:
     Diagonalizing with lowered threshold

     Davidson diagonalization with overlap
     ethr =  8.84E-06,  avg # of iterations =  5.9

     total cpu time spent up to now is      480.5 secs

     total energy              =    -195.58314624 Ry
     estimated scf accuracy    <       0.00145658 Ry

     iteration #  2     ecut=    75.00 Ry     beta= 0.70
     Davidson diagonalization with overlap
     ethr =  9.10E-06,  avg # of iterations =  2.0

     total cpu time spent up to now is      620.3 secs

     total energy              =    -195.58332019 Ry
     estimated scf accuracy    <       0.00012596 Ry

     iteration #  3     ecut=    75.00 Ry     beta= 0.70
     Davidson diagonalization with overlap
     ethr =  7.87E-07,  avg # of iterations =  2.2

     total cpu time spent up to now is      757.8 secs

     total energy              =    -195.58333670 Ry
     estimated scf accuracy    <       0.00000878 Ry

     iteration #  4     ecut=    75.00 Ry     beta= 0.70
     Davidson diagonalization with overlap
     ethr =  5.49E-08,  avg # of iterations =  2.0

     total cpu time spent up to now is      884.9 secs

     End of self-consistent calculation

     Number of k-points >= 100: set verbosity='high' to print the bands.

     the Fermi energy is    10.1647 ev

!    total energy              =    -195.58333781 Ry
     estimated scf accuracy    <       0.00000008 Ry
     smearing contrib. (-TS)   =       0.00097080 Ry
     internal energy E=F+TS    =    -195.58430861 Ry

     The total energy is F=E-TS. E is the sum of the following terms:
     one-electron contribution =     -68.20082963 Ry
     hartree contribution      =      42.08277470 Ry
     xc contribution           =     -52.27495524 Ry
     ewald contribution        =    -117.19129844 Ry

     convergence has been achieved in   4 iterations

     Writing all to output data dir ../tmp/po.save/

     init_run     :    201.89s CPU     58.24s WALL (       1 calls)
     electrons    :   3024.68s CPU    826.58s WALL (       1 calls)

     Called by init_run:
     wfcinit      :    197.96s CPU     57.13s WALL (       1 calls)
     potinit      :      0.08s CPU      0.01s WALL (       1 calls)
     hinit0       :      3.68s CPU      1.04s WALL (       1 calls)

     Called by electrons:
     c_bands      :   2498.09s CPU    668.37s WALL (       5 calls)
     sum_band     :    525.87s CPU    158.04s WALL (       5 calls)
     v_of_rho     :      0.37s CPU      0.08s WALL (       5 calls)
     newd         :      0.49s CPU      0.10s WALL (       5 calls)
     mix_rho      :      0.01s CPU      0.01s WALL (       5 calls)

     Called by c_bands:
     init_us_2    :      2.51s CPU      0.69s WALL (    1276 calls)
     init_us_2:cp :      2.50s CPU      0.68s WALL (    1276 calls)
     cegterg      :   2494.54s CPU    667.46s WALL (     580 calls)

     Called by *egterg:
     cdiaghg      :      1.04s CPU      0.30s WALL (    2371 calls)
     h_psi        :   2679.47s CPU    720.59s WALL (    2603 calls)
     s_psi        :      1.12s CPU      0.33s WALL (    2603 calls)
     g_psi        :      0.79s CPU      0.28s WALL (    1907 calls)

     Called by h_psi:
     h_psi:calbec :      4.35s CPU      1.08s WALL (    2603 calls)
     vloc_psi     :   2673.02s CPU    718.86s WALL (    2603 calls)
     add_vuspsi   :      1.22s CPU      0.36s WALL (    2603 calls)

     General routines
     calbec       :      5.76s CPU      1.45s WALL (    3183 calls)
     fft          :      3.56s CPU      0.83s WALL (      56 calls)
     ffts         :      0.03s CPU      0.01s WALL (       5 calls)
     fftw         :   3162.84s CPU    867.27s WALL (   46048 calls)

     Parallel routines

     PWSCF        :  53m47.87s CPU  14m45.55s WALL


   This run was terminated on:   8:37: 2  13Mar2022            

=------------------------------------------------------------------------------=
   JOB DONE.
=------------------------------------------------------------------------------=
