
     Program PWSCF v.7.0 starts on 13Mar2022 at  6:58:30 

     This program is part of the open-source Quantum ESPRESSO suite
     for quantum simulation of materials; please cite
         "P. Giannozzi et al., J. Phys.:Condens. Matter 21 395502 (2009);
         "P. Giannozzi et al., J. Phys.:Condens. Matter 29 465901 (2017);
         "P. Giannozzi et al., J. Chem. Phys. 152 154105 (2020);
          URL http://www.quantum-espresso.org", 
     in publications or presentations arising from this work. More details at
     http://www.quantum-espresso.org/quote

     Parallel version (MPI & OpenMP), running on      10 processor cores
     Number of MPI processes:                 1
     Threads/MPI process:                    10

     MPI processes distributed on     1 nodes
     0 MiB available memory on the printing compute node when the environment starts

     Reading input from po.scf.edge7.0116848019.angle0.0872.in

     Current dimensions of program PWSCF are:
     Max number of different atomic species (ntypx) = 10
     Max number of k-points (npk) =  40000
     Max angular momentum in pseudopotentials (lmaxx) =  4
     file Po.pbe-dn-rrkjus_psl.1.0.0.UPF: wavefunction(s)  5D renormalized

     Subspace diagonalization in iterative solution of the eigenvalue problem:
     a serial algorithm will be used


     G-vector sticks info
     --------------------
     sticks:   dense  smooth     PW     G-vecs:    dense   smooth      PW
     Sum        1175    1175    353                29989    29989    4861

     Using Slab Decomposition



     bravais-lattice index     =            5
     lattice parameter (alat)  =       7.0117  a.u.
     unit-cell volume          =     340.9972 (a.u.)^3
     number of atoms/cell      =            1
     number of atomic types    =            1
     number of electrons       =        16.00
     number of Kohn-Sham states=           12
     kinetic-energy cutoff     =      75.0000  Ry
     charge density cutoff     =     300.0000  Ry
     scf convergence threshold =      1.0E-06
     mixing beta               =       0.7000
     number of iterations used =            8  plain     mixing
     Exchange-correlation= PBE
                           (   1   4   3   4   0   0   0)

     celldm(1)=   7.011685  celldm(2)=   0.000000  celldm(3)=   0.000000
     celldm(4)=   0.087200  celldm(5)=   0.000000  celldm(6)=   0.000000

     crystal axes: (cart. coord. in units of alat)
               a(1) = (   0.675574  -0.390043   0.625673 )  
               a(2) = (   0.000000   0.780085   0.625673 )  
               a(3) = (  -0.675574  -0.390043   0.625673 )  

     reciprocal axes: (cart. coord. in units 2 pi/alat)
               b(1) = (  0.740112 -0.427304  0.532760 )  
               b(2) = (  0.000000  0.854607  0.532760 )  
               b(3) = ( -0.740112 -0.427304  0.532760 )  


     PseudoPot. # 1 for Po read from file:
     ../pseudo/Po.pbe-dn-rrkjus_psl.1.0.0.UPF
     MD5 check sum: 93671b84bf7252fd23d3fb506349bc50
     Pseudo is Ultrasoft + core correction, Zval = 16.0
     Generated using &quot;atomic&quot; code by A. Dal Corso  v.6.2.2
     Using radial grid of 1283 points,  6 beta functions with: 
                l(1) =   0
                l(2) =   0
                l(3) =   1
                l(4) =   1
                l(5) =   2
                l(6) =   2
     Q(r) pseudized with 0 coefficients 


     atomic species   valence    mass     pseudopotential
        Po            16.00   209.00000     Po( 1.00)

     12 Sym. Ops., with inversion, found



   Cartesian axes

     site n.     atom                  positions (alat units)
         1           Po  tau(   1) = (   0.0000000   0.0000000   0.0000000  )

     number of k points=   116  Marzari-Vanderbilt smearing, width (Ry)=  0.0600

     Number of k-points >= 100: set verbosity='high' to print them.

     Dense  grid:    29989 G-vectors     FFT dimensions: (  40,  40,  40)

     Estimated max dynamical RAM per process >     184.98 MB

     Check: negative core charge=   -0.000002

     Initial potential from superposition of free atoms

     starting charge      15.9996, renormalised to      16.0000
     Starting wfcs are    9 randomized atomic wfcs +    3 random wfcs

     total cpu time spent up to now is       69.1 secs

     Self-consistent Calculation

     iteration #  1     ecut=    75.00 Ry     beta= 0.70
     Davidson diagonalization with overlap
     ethr =  1.00E-02,  avg # of iterations =  4.8

     Threshold (ethr) on eigenvalues was too large:
     Diagonalizing with lowered threshold

     Davidson diagonalization with overlap
     ethr =  1.88E-05,  avg # of iterations =  5.4

     total cpu time spent up to now is      584.8 secs

     total energy              =    -195.55803775 Ry
     estimated scf accuracy    <       0.00313863 Ry

     iteration #  2     ecut=    75.00 Ry     beta= 0.70
     Davidson diagonalization with overlap
     ethr =  1.96E-05,  avg # of iterations =  2.0

     total cpu time spent up to now is      785.9 secs

     total energy              =    -195.55853936 Ry
     estimated scf accuracy    <       0.00020852 Ry

     iteration #  3     ecut=    75.00 Ry     beta= 0.70
     Davidson diagonalization with overlap
     ethr =  1.30E-06,  avg # of iterations =  2.7

     total cpu time spent up to now is     1014.5 secs

     total energy              =    -195.55859133 Ry
     estimated scf accuracy    <       0.00002031 Ry

     iteration #  4     ecut=    75.00 Ry     beta= 0.70
     Davidson diagonalization with overlap
     ethr =  1.27E-07,  avg # of iterations =  2.0

     total cpu time spent up to now is     1208.2 secs

     End of self-consistent calculation

     Number of k-points >= 100: set verbosity='high' to print the bands.

     the Fermi energy is     5.3885 ev

!    total energy              =    -195.55859356 Ry
     estimated scf accuracy    <       0.00000039 Ry
     smearing contrib. (-TS)   =       0.00218494 Ry
     internal energy E=F+TS    =    -195.56077849 Ry

     The total energy is F=E-TS. E is the sum of the following terms:
     one-electron contribution =     -89.49711069 Ry
     hartree contribution      =      50.15221091 Ry
     xc contribution           =     -52.12373200 Ry
     ewald contribution        =    -104.09214671 Ry

     convergence has been achieved in   4 iterations

     Writing all to output data dir ../tmp/po.save/

     init_run     :    238.75s CPU     68.99s WALL (       1 calls)
     electrons    :   3750.51s CPU   1139.13s WALL (       1 calls)

     Called by init_run:
     wfcinit      :    234.93s CPU     67.52s WALL (       1 calls)
     potinit      :      0.11s CPU      0.02s WALL (       1 calls)
     hinit0       :      3.54s CPU      1.37s WALL (       1 calls)

     Called by electrons:
     c_bands      :   3128.56s CPU    952.13s WALL (       5 calls)
     sum_band     :    621.13s CPU    186.82s WALL (       5 calls)
     v_of_rho     :      0.38s CPU      0.08s WALL (       5 calls)
     newd         :      0.57s CPU      0.14s WALL (       5 calls)
     mix_rho      :      0.03s CPU      0.01s WALL (       5 calls)

     Called by c_bands:
     init_us_2    :      3.04s CPU      0.83s WALL (    1276 calls)
     init_us_2:cp :      3.03s CPU      0.83s WALL (    1276 calls)
     cegterg      :   3123.91s CPU    950.99s WALL (     580 calls)

     Called by *egterg:
     cdiaghg      :      1.22s CPU      0.34s WALL (    2424 calls)
     h_psi        :   3342.15s CPU   1013.60s WALL (    2656 calls)
     s_psi        :      1.44s CPU      0.39s WALL (    2656 calls)
     g_psi        :      0.89s CPU      0.31s WALL (    1960 calls)

     Called by h_psi:
     h_psi:calbec :      5.31s CPU      1.48s WALL (    2656 calls)
     vloc_psi     :   3334.29s CPU   1011.39s WALL (    2656 calls)
     add_vuspsi   :      1.54s CPU      0.43s WALL (    2656 calls)

     General routines
     calbec       :      6.99s CPU      1.93s WALL (    3236 calls)
     fft          :      3.45s CPU      1.16s WALL (      56 calls)
     ffts         :      0.02s CPU      0.00s WALL (       5 calls)
     fftw         :   3916.08s CPU   1187.04s WALL (   46204 calls)

     Parallel routines

     PWSCF        :      1h 6m CPU  20m 9.00s WALL


   This run was terminated on:   7:18:39  13Mar2022            

=------------------------------------------------------------------------------=
   JOB DONE.
=------------------------------------------------------------------------------=
