
     Program PWSCF v.7.0 starts on 13Mar2022 at 11:54:48 

     This program is part of the open-source Quantum ESPRESSO suite
     for quantum simulation of materials; please cite
         "P. Giannozzi et al., J. Phys.:Condens. Matter 21 395502 (2009);
         "P. Giannozzi et al., J. Phys.:Condens. Matter 29 465901 (2017);
         "P. Giannozzi et al., J. Chem. Phys. 152 154105 (2020);
          URL http://www.quantum-espresso.org", 
     in publications or presentations arising from this work. More details at
     http://www.quantum-espresso.org/quote

     Parallel version (MPI & OpenMP), running on      10 processor cores
     Number of MPI processes:                 1
     Threads/MPI process:                    10

     MPI processes distributed on     1 nodes
     0 MiB available memory on the printing compute node when the environment starts

     Reading input from po.scf.edge5.6116848019.angle-0.0000.in

     Current dimensions of program PWSCF are:
     Max number of different atomic species (ntypx) = 10
     Max number of k-points (npk) =  40000
     Max angular momentum in pseudopotentials (lmaxx) =  4
     file Po.pbe-dn-rrkjus_psl.1.0.0.UPF: wavefunction(s)  5D renormalized

     Subspace diagonalization in iterative solution of the eigenvalue problem:
     a serial algorithm will be used


     G-vector sticks info
     --------------------
     sticks:   dense  smooth     PW     G-vecs:    dense   smooth      PW
     Sum         749     749    233                15515    15515    2601

     Using Slab Decomposition



     bravais-lattice index     =            5
     lattice parameter (alat)  =       5.6117  a.u.
     unit-cell volume          =     176.7176 (a.u.)^3
     number of atoms/cell      =            1
     number of atomic types    =            1
     number of electrons       =        16.00
     number of Kohn-Sham states=           12
     kinetic-energy cutoff     =      75.0000  Ry
     charge density cutoff     =     300.0000  Ry
     scf convergence threshold =      1.0E-06
     mixing beta               =       0.7000
     number of iterations used =            8  plain     mixing
     Exchange-correlation= PBE
                           (   1   4   3   4   0   0   0)

     celldm(1)=   5.611685  celldm(2)=   0.000000  celldm(3)=   0.000000
     celldm(4)=  -0.000000  celldm(5)=   0.000000  celldm(6)=   0.000000

     crystal axes: (cart. coord. in units of alat)
               a(1) = (   0.707107  -0.408248   0.577350 )  
               a(2) = (   0.000000   0.816497   0.577350 )  
               a(3) = (  -0.707107  -0.408248   0.577350 )  

     reciprocal axes: (cart. coord. in units 2 pi/alat)
               b(1) = (  0.707107 -0.408248  0.577350 )  
               b(2) = (  0.000000  0.816497  0.577350 )  
               b(3) = ( -0.707107 -0.408248  0.577350 )  


     PseudoPot. # 1 for Po read from file:
     ../pseudo/Po.pbe-dn-rrkjus_psl.1.0.0.UPF
     MD5 check sum: 93671b84bf7252fd23d3fb506349bc50
     Pseudo is Ultrasoft + core correction, Zval = 16.0
     Generated using &quot;atomic&quot; code by A. Dal Corso  v.6.2.2
     Using radial grid of 1283 points,  6 beta functions with: 
                l(1) =   0
                l(2) =   0
                l(3) =   1
                l(4) =   1
                l(5) =   2
                l(6) =   2
     Q(r) pseudized with 0 coefficients 


     atomic species   valence    mass     pseudopotential
        Po            16.00   209.00000     Po( 1.00)

     12 Sym. Ops., with inversion, found



   Cartesian axes

     site n.     atom                  positions (alat units)
         1           Po  tau(   1) = (   0.0000000   0.0000000   0.0000000  )

     number of k points=   116  Marzari-Vanderbilt smearing, width (Ry)=  0.0600

     Number of k-points >= 100: set verbosity='high' to print them.

     Dense  grid:    15515 G-vectors     FFT dimensions: (  32,  32,  32)

     Estimated max dynamical RAM per process >      96.41 MB

     Check: negative core charge=   -0.000002

     Initial potential from superposition of free atoms

     starting charge      15.9996, renormalised to      16.0000
     Starting wfcs are    9 randomized atomic wfcs +    3 random wfcs

     total cpu time spent up to now is        5.6 secs

     Self-consistent Calculation

     iteration #  1     ecut=    75.00 Ry     beta= 0.70
     Davidson diagonalization with overlap
     ethr =  1.00E-02,  avg # of iterations =  5.0

     Threshold (ethr) on eigenvalues was too large:
     Diagonalizing with lowered threshold

     Davidson diagonalization with overlap
     ethr =  1.21E-05,  avg # of iterations =  5.4

     total cpu time spent up to now is       43.3 secs

     total energy              =    -195.51417610 Ry
     estimated scf accuracy    <       0.00201775 Ry

     iteration #  2     ecut=    75.00 Ry     beta= 0.70
     Davidson diagonalization with overlap
     ethr =  1.26E-05,  avg # of iterations =  1.0

     total cpu time spent up to now is       54.0 secs

     total energy              =    -195.51423711 Ry
     estimated scf accuracy    <       0.00013588 Ry

     iteration #  3     ecut=    75.00 Ry     beta= 0.70
     Davidson diagonalization with overlap
     ethr =  8.49E-07,  avg # of iterations =  1.7

     total cpu time spent up to now is       67.7 secs

     total energy              =    -195.51424452 Ry
     estimated scf accuracy    <       0.00000341 Ry

     iteration #  4     ecut=    75.00 Ry     beta= 0.70
     Davidson diagonalization with overlap
     ethr =  2.13E-08,  avg # of iterations =  3.1

     total cpu time spent up to now is       82.5 secs

     End of self-consistent calculation

     Number of k-points >= 100: set verbosity='high' to print the bands.

     the Fermi energy is    16.3517 ev

!    total energy              =    -195.51424588 Ry
     estimated scf accuracy    <       0.00000010 Ry
     smearing contrib. (-TS)   =      -0.00008925 Ry
     internal energy E=F+TS    =    -195.51415663 Ry

     The total energy is F=E-TS. E is the sum of the following terms:
     one-electron contribution =     -49.38507009 Ry
     hartree contribution      =      35.84248059 Ry
     xc contribution           =     -52.53661481 Ry
     ewald contribution        =    -129.43495232 Ry

     convergence has been achieved in   4 iterations

     Writing all to output data dir ../tmp/po.save/

     init_run     :     21.06s CPU      5.43s WALL (       1 calls)
     electrons    :    273.80s CPU     76.90s WALL (       1 calls)

     Called by init_run:
     wfcinit      :     18.66s CPU      4.46s WALL (       1 calls)
     potinit      :      0.06s CPU      0.01s WALL (       1 calls)
     hinit0       :      2.23s CPU      0.92s WALL (       1 calls)

     Called by electrons:
     c_bands      :    227.91s CPU     64.35s WALL (       5 calls)
     sum_band     :     45.43s CPU     12.45s WALL (       5 calls)
     v_of_rho     :      0.20s CPU      0.04s WALL (       5 calls)
     newd         :      0.32s CPU      0.07s WALL (       5 calls)
     mix_rho      :      0.02s CPU      0.00s WALL (       5 calls)

     Called by c_bands:
     init_us_2    :      1.72s CPU      0.46s WALL (    1276 calls)
     init_us_2:cp :      1.71s CPU      0.46s WALL (    1276 calls)
     cegterg      :    225.26s CPU     63.66s WALL (     580 calls)

     Called by *egterg:
     cdiaghg      :      1.05s CPU      0.30s WALL (    2342 calls)
     h_psi        :    233.37s CPU     64.80s WALL (    2574 calls)
     s_psi        :      0.91s CPU      0.28s WALL (    2574 calls)
     g_psi        :      0.70s CPU      0.24s WALL (    1878 calls)

     Called by h_psi:
     h_psi:calbec :      2.68s CPU      0.70s WALL (    2574 calls)
     vloc_psi     :    228.91s CPU     63.54s WALL (    2574 calls)
     add_vuspsi   :      0.94s CPU      0.30s WALL (    2574 calls)

     General routines
     calbec       :      3.63s CPU      0.93s WALL (    3154 calls)
     fft          :      2.07s CPU      0.70s WALL (      56 calls)
     ffts         :      0.01s CPU      0.00s WALL (       5 calls)
     fftw         :    241.26s CPU     66.83s WALL (   45922 calls)

     Parallel routines

     PWSCF        :   4m56.26s CPU   1m23.23s WALL


   This run was terminated on:  11:56:11  13Mar2022            

=------------------------------------------------------------------------------=
   JOB DONE.
=------------------------------------------------------------------------------=
